ITEM: TIMESTEP
0
ITEM: NUMBER OF ATOMS
320
ITEM: BOX BOUNDS pp pp pp
-8.297 8.3174
-8.1455 8.1829
-7.2013 7.1735
ITEM: ATOMS id type xs ys zs
267 2 0.160251 0.0903467 0.205789
266 1 0.192219 0.127225 0.155318
269 2 0.190839 0.100567 0.0868945
268 2 0.254665 0.135083 0.179501
16 1 0.0539546 0.207945 0.324766
20 2 0.0613109 0.246698 0.264984
270 2 0.161802 0.187547 0.152223
109 2 0.181859 0.363043 0.2012
106 1 0.182465 0.4297 0.19377
284 2 0.402145 0.187767 0.33712
281 1 0.455198 0.154179 0.316135
15 2 0.424496 0.359433 0.366594
55 2 0.280424 0.295388 0.0565744
51 1 0.34592 0.296286 0.0533984
110 2 0.122946 0.457142 0.18068
11 1 0.394135 0.392342 0.310919
108 2 0.222934 0.442567 0.13608
14 2 0.434438 0.393801 0.249975
142 2 0.0368817 0.29799 0.00866401
12 2 0.381468 0.455217 0.332398
54 2 0.366169 0.235268 0.0727081
19 2 0.00316194 0.233235 0.367245
282 2 0.453743 0.139408 0.24179
17 2 0.109492 0.20552 0.367935
145 2 0.140898 0.328426 0.00815431
13 2 0.338453 0.361413 0.288192
52 2 0.367778 0.342163 0.105384
2 2 0.409205 0.0222216 0.114684
107 2 0.207963 0.45329 0.259871
207 2 0.188682 0.117879 0.445026
208 2 0.290846 0.0929425 0.471759
3 2 0.495913 0.0461545 0.041101
48 2 0.115138 0.322859 0.472278
1 1 0.43029 0.042535 0.04439
5 2 0.404368 0.100245 0.024826
18 2 0.0405299 0.142678 0.305974
285 2 0.459521 0.0983174 0.357601
47 2 0.211479 0.365059 0.455863
209 2 0.258151 0.19633 0.46626
206 1 0.241475 0.134845 0.485902
283 2 0.507459 0.193953 0.332422
9 2 0.695714 0.166013 0.115173
254 2 0.554791 0.278709 0.156288
7 2 0.74529 0.0701934 0.125098
6 1 0.695643 0.102488 0.0935735
8 2 0.639084 0.072732 0.114441
10 2 0.700335 0.0981239 0.0187503
303 2 0.765035 0.190236 0.334754
301 1 0.700333 0.187237 0.353483
302 2 0.679333 0.1226 0.347195
304 2 0.660528 0.226799 0.313278
105 2 0.855136 0.308857 0.27477
103 2 0.871861 0.355997 0.167074
101 1 0.867899 0.296309 0.201204
102 2 0.926235 0.265512 0.192578
104 2 0.816823 0.262951 0.174877
305 2 0.699889 0.203372 0.42601
36 1 0.913871 0.0479452 0.219601
255 2 0.601681 0.332185 0.0681803
251 1 0.602048 0.32379 0.142627
252 2 0.581307 0.37929 0.175421
37 2 0.874872 0.00718265 0.182534
253 2 0.660028 0.305348 0.169001
72 2 0.597995 0.352421 0.458676
38 2 0.963723 0.063343 0.174809
82 2 0.708226 0.422535 0.316346
85 2 0.793149 0.483848 0.288692
218 2 0.881063 0.349155 0.431243
39 2 0.879578 0.102767 0.234422
81 1 0.733677 0.466941 0.266937
170 2 0.938701 0.0210007 0.488367
307 2 0.550293 0.494036 0.3326
40 2 0.937275 0.0223441 0.283462
83 2 0.731714 0.438786 0.198704
216 1 0.86802 0.303861 0.484987
219 2 0.909184 0.251344 0.481944
220 2 0.807591 0.283545 0.485232
292 2 0.525408 0.195771 0.00180587
214 2 0.84187 0.313108 0.00870223
275 2 0.652189 0.0483526 0.490365
167 2 0.838316 0.0537027 0.460544
233 2 0.470932 0.933598 0.250646
116 1 0.0881647 0.908944 0.131991
312 2 0.370892 0.86658 0.189407
314 2 0.308858 0.800139 0.129087
313 2 0.372002 0.869732 0.0704862
311 1 0.333655 0.860791 0.130065
315 2 0.285927 0.906719 0.13018
117 2 0.0972459 0.954895 0.0765357
118 2 0.11172 0.937332 0.196859
119 2 0.0244405 0.886044 0.13787
161 1 0.0809824 0.68192 0.254393
120 2 0.125566 0.854868 0.121939
162 2 0.0974486 0.620984 0.22649
183 2 0.0183676 0.90397 0.378321
184 2 0.0182257 0.798932 0.395417
164 2 0.0821711 0.728701 0.199815
165 2 0.0201563 0.686151 0.285459
227 2 0.251006 0.921833 0.352802
226 1 0.226314 0.905615 0.420563
228 2 0.22598 0.956466 0.468372
163 2 0.122014 0.701902 0.309025
229 2 0.163541 0.884524 0.414638
230 2 0.263116 0.856122 0.450626
222 2 0.0350454 0.60947 0.434857
158 2 0.419806 0.806098 0.450363
64 2 0.221551 0.634822 0.074967
61 1 0.193552 0.60982 0.0129957
27 2 0.428397 0.517666 0.033207
309 2 0.47699 0.551415 0.396313
63 2 0.195917 0.541202 0.0150804
159 2 0.424934 0.702984 0.492694
65 2 0.131125 0.626724 0.0126172
148 2 0.863448 0.546002 0.132196
146 1 0.924036 0.544386 0.155449
273 2 0.574844 0.974838 0.497508
310 2 0.570187 0.530417 0.443045
84 2 0.693687 0.520435 0.266058
181 1 0.983046 0.852579 0.399409
185 2 0.933687 0.848579 0.351782
149 2 0.958219 0.512001 0.101175
147 2 0.94559 0.607238 0.164735
150 2 0.930424 0.511222 0.221204
231 1 0.529816 0.918096 0.282846
235 2 0.56653 0.885527 0.234463
232 2 0.519185 0.881053 0.344891
182 2 0.955018 0.856121 0.469796
234 2 0.562526 0.975883 0.296841
172 2 0.80106 0.905065 0.314765
175 2 0.696479 0.878878 0.310222
174 2 0.734398 0.95955 0.235548
171 1 0.740907 0.930478 0.304697
173 2 0.72775 0.978286 0.355344
113 2 0.791357 0.670916 0.28047
111 1 0.829509 0.665093 0.341314
115 2 0.787685 0.651505 0.395806
114 2 0.869255 0.613389 0.337333
112 2 0.860136 0.720011 0.353946
33 2 0.872006 0.791075 0.0372893
35 2 0.935367 0.740202 0.122785
31 1 0.872 0.755356 0.102857
198 2 0.620853 0.73097 0.119049
200 2 0.577626 0.793429 0.028548
199 2 0.592338 0.68797 0.013801
196 1 0.576837 0.73314 0.0636558
308 2 0.564743 0.600722 0.351061
197 2 0.51656 0.722591 0.0935401
34 2 0.842753 0.789552 0.157559
306 1 0.540374 0.544936 0.380856
93 2 0.722052 0.542918 0.0291863
32 2 0.837418 0.699533 0.0921057
44 2 0.731334 0.549403 0.471327
194 2 0.637299 0.811067 0.487215
25 2 0.664732 0.938519 0.00101508
95 2 0.621863 0.516736 0.0171455
24 2 0.71065 0.867335 0.0732319
21 1 0.7161 0.898547 0.00749697
141 1 0.0897471 0.309972 0.965388
143 2 0.107982 0.258047 0.924738
46 1 0.162265 0.360192 0.50346
50 2 0.141467 0.419388 0.520536
144 2 0.078995 0.360502 0.917504
53 2 0.36791 0.313282 0.986002
30 2 0.377581 0.458348 0.951109
49 2 0.185513 0.328179 0.56676
210 2 0.232859 0.134188 0.559307
78 2 0.268598 0.157028 0.711342
77 2 0.305375 0.227634 0.796808
59 2 0.409682 0.189674 0.630949
80 2 0.202451 0.211047 0.788223
76 1 0.258959 0.182711 0.780705
79 2 0.25839 0.131435 0.827758
294 2 0.494282 0.22363 0.885226
56 1 0.453024 0.162664 0.678414
57 2 0.428627 0.161222 0.749578
250 2 0.409009 0.421506 0.569074
246 1 0.367603 0.391254 0.617598
248 2 0.405432 0.356718 0.666892
317 2 0.0422673 0.154829 0.580017
249 2 0.325605 0.355855 0.578679
247 2 0.33296 0.438616 0.654367
265 2 0.0543607 0.0726589 0.874851
319 2 0.124797 0.120217 0.652624
58 2 0.465214 0.0987554 0.656858
178 2 0.243781 0.386796 0.883401
123 2 0.0799399 0.359449 0.69421
176 1 0.230811 0.420872 0.819715
180 2 0.227404 0.37721 0.763175
121 1 0.0224987 0.391826 0.701128
125 2 0.0280358 0.44585 0.745625
179 2 0.169837 0.444279 0.831818
316 1 0.0607505 0.117138 0.638268
124 2 0.00117758 0.410876 0.633873
318 2 0.0485894 0.0542673 0.61918
320 2 0.0294315 0.131385 0.701573
261 1 0.0920937 0.0194655 0.854538
264 2 0.146088 0.0370055 0.816953
177 2 0.277338 0.464746 0.807803
75 2 0.548908 0.28436 0.534558
71 1 0.588167 0.338885 0.532993
122 2 0.975542 0.356712 0.734008
69 2 0.603249 0.368258 0.746114
73 2 0.643159 0.325508 0.574754
217 2 0.881682 0.333779 0.55073
74 2 0.559677 0.389453 0.571416
168 2 0.880996 0.0778093 0.57175
67 2 0.533909 0.449752 0.773219
274 2 0.54816 0.0790005 0.505788
213 2 0.753433 0.319043 0.934841
271 1 0.593623 0.0334255 0.522481
68 2 0.512433 0.346683 0.807393
60 2 0.508315 0.201685 0.673691
212 2 0.778166 0.228501 0.991522
291 1 0.539219 0.192645 0.926706
293 2 0.540277 0.130651 0.897531
295 2 0.597373 0.219954 0.914734
66 1 0.560638 0.392614 0.796855
215 2 0.835627 0.268057 0.894424
211 1 0.80349 0.281479 0.959954
242 2 0.639281 0.197897 0.685076
241 1 0.69591 0.181705 0.721034
245 2 0.689567 0.198132 0.794181
243 2 0.704073 0.114825 0.720446
244 2 0.74368 0.211816 0.680905
296 1 0.883279 0.0211281 0.802582
97 2 0.862696 0.459632 0.72992
297 2 0.904479 0.0226533 0.730582
99 2 0.827101 0.393468 0.817683
96 1 0.814512 0.418695 0.749682
100 2 0.761762 0.455803 0.754933
300 2 0.886985 0.0837952 0.831305
298 2 0.818922 0.00177086 0.806508
98 2 0.799858 0.374374 0.692749
166 1 0.877803 0.031828 0.51487
70 2 0.591372 0.400187 0.863385
92 2 0.698707 0.445959 0.982169
43 2 0.79827 0.491465 0.540856
272 2 0.598215 0.0287042 0.59795
42 2 0.69417 0.476144 0.555959
157 2 0.491882 0.773691 0.534806
156 1 0.431544 0.766522 0.509214
160 2 0.387526 0.783148 0.563855
188 2 0.0869041 0.788274 0.979975
134 2 0.300523 0.98785 0.694799
29 2 0.454845 0.527003 0.913243
90 2 0.350697 0.574458 0.561696
28 2 0.362147 0.567626 0.957197
132 2 0.366873 0.903779 0.704958
262 2 0.0570179 0.982336 0.808138
4 2 0.410986 0.994845 0.99565
135 2 0.385968 0.98331 0.619439
89 2 0.276344 0.656534 0.579642
86 1 0.285596 0.591569 0.571098
87 2 0.26128 0.561058 0.630027
263 2 0.111366 0.987238 0.915889
202 2 0.0828004 0.578871 0.6935
155 2 0.0697187 0.860906 0.668151
62 2 0.225175 0.634056 0.952391
153 2 0.135544 0.931551 0.621899
131 1 0.339187 0.946414 0.655821
133 2 0.303626 0.911548 0.606475
205 2 0.0714089 0.640298 0.796968
151 1 0.124599 0.864742 0.627833
204 2 0.11786 0.682612 0.693879
88 2 0.25346 0.575094 0.507249
152 2 0.174653 0.835113 0.664723
287 2 0.471053 0.690491 0.802028
288 2 0.462716 0.610982 0.713873
286 1 0.429612 0.654328 0.758512
127 2 0.25206 0.749464 0.85942
130 2 0.240409 0.857131 0.8578
126 1 0.283713 0.80808 0.861102
128 2 0.321486 0.82047 0.921553
129 2 0.32379 0.812651 0.799808
201 1 0.10931 0.62685 0.736852
203 2 0.164691 0.600005 0.765333
289 2 0.391864 0.621931 0.807909
26 1 0.406197 0.517523 0.962365
154 2 0.113512 0.839037 0.557422
225 2 0.0307336 0.657891 0.546464
190 2 0.0643506 0.821752 0.867867
186 1 0.0371341 0.798863 0.930719
257 2 0.475648 0.959618 0.832519
221 1 0.0112541 0.606831 0.505242
290 2 0.386626 0.690524 0.718934
189 2 0.000434645 0.745898 0.91466
224 2 0.0324548 0.54945 0.535168
169 2 0.848476 0.977504 0.54472
187 2 0.998852 0.850674 0.955355
258 2 0.527356 0.869116 0.848486
256 1 0.533765 0.935546 0.848925
260 2 0.553066 0.956631 0.916056
22 2 0.774351 0.930279 0.997929
91 1 0.681349 0.510737 0.986074
223 2 0.944339 0.602576 0.511385
299 2 0.922673 0.976365 0.837596
23 2 0.711686 0.853606 0.951181
94 2 0.677682 0.537622 0.919679
259 2 0.575527 0.952479 0.793334
192 2 0.724171 0.762883 0.521008
195 2 0.666944 0.816718 0.60602
45 2 0.739875 0.568547 0.591943
191 1 0.686906 0.816572 0.534037
280 2 0.748813 0.712813 0.771235
279 2 0.653285 0.6573 0.777519
41 1 0.740705 0.52002 0.539938
276 1 0.68959 0.709142 0.803153
278 2 0.698283 0.700174 0.876337
277 2 0.65587 0.766084 0.79195
193 2 0.72454 0.868331 0.516732
138 2 0.867151 0.682423 0.849966
137 2 0.928595 0.61762 0.916159
139 2 0.903966 0.590902 0.796859
136 1 0.882047 0.61819 0.863946
140 2 0.83257 0.583992 0.890134
240 2 0.889697 0.848773 0.760883
237 2 0.871887 0.757761 0.687569
238 2 0.97112 0.785335 0.731609
239 2 0.921118 0.842094 0.643375
236 1 0.912443 0.806208 0.706449
ITEM: TIMESTEP
400
ITEM: NUMBER OF ATOMS
320
ITEM: BOX BOUNDS pp pp pp
-8.297 8.3174
-8.1455 8.1829
-7.2013 7.1735
ITEM: ATOMS id type xs ys zs
267 2 0.164503 0.0804064 0.199876
266 1 0.198445 0.111135 0.145731
269 2 0.200069 0.0702468 0.0862473
268 2 0.260594 0.124529 0.168093
16 1 0.0733356 0.206914 0.33214
20 2 0.075182 0.226764 0.263502
270 2 0.168186 0.168493 0.128482
109 2 0.172093 0.349199 0.208652
106 1 0.179525 0.414635 0.203562
284 2 0.388652 0.170188 0.309357
281 1 0.442017 0.138338 0.329963
15 2 0.440201 0.34502 0.365841
55 2 0.272069 0.314785 0.0503683
51 1 0.336 0.299881 0.0460708
110 2 0.127729 0.441368 0.16895
11 1 0.413814 0.373736 0.306527
108 2 0.232765 0.425399 0.163497
14 2 0.461232 0.402115 0.264839
142 2 0.0209341 0.292794 0.980807
12 2 0.373284 0.420936 0.33057
54 2 0.349394 0.245582 0.0876442
19 2 0.034198 0.248133 0.369494
282 2 0.461445 0.0982957 0.274754
17 2 0.133363 0.209817 0.360306
145 2 0.116923 0.340094 0.993043
13 2 0.380045 0.330377 0.263624
52 2 0.377641 0.346768 0.0752795
2 2 0.386403 0.0322674 0.114912
107 2 0.184953 0.439388 0.274014
207 2 0.195979 0.102043 0.478085
208 2 0.295866 0.064307 0.456622
3 2 0.490727 0.0396768 0.0918779
48 2 0.0988388 0.359712 0.507666
1 1 0.431756 0.0383483 0.0591627
5 2 0.422004 0.0946693 0.0233746
18 2 0.0509978 0.144413 0.333262
285 2 0.431998 0.105548 0.394961
47 2 0.179958 0.32823 0.437641
209 2 0.257579 0.149993 0.3938
206 1 0.258494 0.119363 0.46149
283 2 0.490045 0.183599 0.340575
9 2 0.724854 0.134181 0.168725
254 2 0.559443 0.289914 0.166362
7 2 0.738486 0.0729539 0.071469
6 1 0.69376 0.109628 0.107692
8 2 0.642866 0.0715617 0.131715
10 2 0.669962 0.159677 0.0659938
303 2 0.744715 0.15698 0.367541
301 1 0.691687 0.194328 0.353081
302 2 0.654941 0.168277 0.297013
304 2 0.710844 0.253857 0.330415
105 2 0.903001 0.235308 0.249458
103 2 0.863094 0.337475 0.267162
101 1 0.864466 0.283908 0.221202
102 2 0.884516 0.301064 0.151592
104 2 0.804628 0.260893 0.21519
305 2 0.656856 0.202591 0.414445
36 1 0.910204 0.0617005 0.2226
255 2 0.595239 0.337785 0.0559687
251 1 0.598994 0.335827 0.132359
252 2 0.585601 0.396408 0.162072
37 2 0.898927 0.0234966 0.161418
253 2 0.660351 0.321989 0.151635
72 2 0.59136 0.358083 0.465509
38 2 0.961847 0.102187 0.20869
82 2 0.68414 0.430471 0.305073
85 2 0.78486 0.46536 0.315284
218 2 0.911024 0.347368 0.422804
39 2 0.853905 0.0953195 0.239178
81 1 0.731685 0.46818 0.272859
170 2 0.942218 1.00026 0.514086
307 2 0.551486 0.483198 0.345747
40 2 0.925459 0.0195438 0.279643
83 2 0.742758 0.449764 0.200981
216 1 0.862915 0.316655 0.462834
219 2 0.858621 0.250177 0.446895
220 2 0.805477 0.341101 0.445506
292 2 0.537248 0.190696 0.0128851
214 2 0.811557 0.362941 0.978902
275 2 0.628092 0.978639 0.479967
167 2 0.896052 0.0778034 0.452686
233 2 0.469496 0.94495 0.319289
116 1 0.0837716 0.909711 0.138512
312 2 0.354487 0.816234 0.183523
314 2 0.262045 0.806233 0.120138
313 2 0.345634 0.8612 0.0652798
311 1 0.31568 0.844513 0.131993
315 2 0.295607 0.903539 0.163303
117 2 0.0687798 0.952868 0.0867507
118 2 0.11294 0.946135 0.19053
119 2 0.0251091 0.889571 0.161717
161 1 0.0973029 0.67113 0.253215
120 2 0.116722 0.85846 0.116229
162 2 0.0935886 0.619202 0.207231
183 2 0.0246846 0.880127 0.367281
184 2 0.989924 0.778182 0.377107
164 2 0.0725312 0.724006 0.217136
165 2 0.0631772 0.652638 0.314097
227 2 0.220425 0.965421 0.356806
226 1 0.206533 0.916603 0.405735
228 2 0.148557 0.931058 0.435127
163 2 0.159129 0.677928 0.27231
229 2 0.204424 0.859243 0.365391
230 2 0.250522 0.910168 0.46246
222 2 0.0231364 0.579431 0.433594
158 2 0.436603 0.834462 0.519085
64 2 0.202544 0.652063 0.0591123
61 1 0.176649 0.606747 0.0135343
27 2 0.419256 0.487222 0.0594839
309 2 0.485515 0.571099 0.36074
63 2 0.176279 0.546859 0.0515009
159 2 0.413389 0.743519 0.458634
65 2 0.119977 0.62726 0.986004
148 2 0.861772 0.510312 0.129661
146 1 0.916925 0.542036 0.141133
273 2 0.533493 0.986263 0.542188
310 2 0.551712 0.537225 0.453356
84 2 0.710198 0.531577 0.275471
181 1 0.97619 0.840964 0.393774
185 2 0.917052 0.858768 0.367387
149 2 0.92318 0.596812 0.0959466
147 2 0.91805 0.561011 0.214604
150 2 0.966272 0.497347 0.130759
231 1 0.531642 0.921478 0.311047
235 2 0.542453 0.881895 0.254142
232 2 0.541663 0.886055 0.373832
182 2 0.97262 0.847877 0.472222
234 2 0.575516 0.970934 0.316642
172 2 0.813497 0.92086 0.31017
175 2 0.71949 0.877662 0.334513
174 2 0.738154 0.941123 0.23152
171 1 0.750437 0.930805 0.30486
173 2 0.732936 0.983508 0.342953
113 2 0.791593 0.630444 0.276373
111 1 0.815088 0.667744 0.335808
115 2 0.763151 0.69857 0.369664
114 2 0.849906 0.629241 0.386037
112 2 0.856462 0.713563 0.310662
33 2 0.868479 0.803212 0.0546838
35 2 0.940726 0.735932 0.0978069
31 1 0.885114 0.768885 0.116631
198 2 0.595946 0.771238 0.096978
200 2 0.554757 0.750439 0.980961
199 2 0.58345 0.670826 0.0565043
196 1 0.559356 0.730829 0.0543923
308 2 0.59486 0.580655 0.351394
197 2 0.497232 0.733949 0.0818726
34 2 0.89847 0.809489 0.173025
306 1 0.544342 0.544123 0.379926
93 2 0.759146 0.520377 0.0186424
32 2 0.839358 0.724638 0.131877
44 2 0.724738 0.551457 0.476679
194 2 0.639337 0.811216 0.491267
25 2 0.702178 0.938128 0.973005
95 2 0.654446 0.539663 0.026688
24 2 0.675037 0.892568 0.0793297
21 1 0.720839 0.895807 0.0268523
141 1 0.0727138 0.316653 0.942536
143 2 0.09752 0.266472 0.902525
46 1 0.164371 0.350506 0.506148
50 2 0.199116 0.404723 0.517919
144 2 0.0500003 0.362044 0.892967
53 2 0.349373 0.293576 0.973831
30 2 0.401152 0.462151 0.942785
49 2 0.182299 0.30448 0.562084
210 2 0.284421 0.155431 0.517166
78 2 0.246241 0.142951 0.743566
77 2 0.283828 0.244891 0.772295
59 2 0.405123 0.167237 0.643838
80 2 0.22503 0.188914 0.85765
76 1 0.2673 0.183738 0.800535
79 2 0.324502 0.158013 0.825854
294 2 0.479139 0.205622 0.913397
56 1 0.456347 0.162522 0.686032
57 2 0.443321 0.123911 0.745161
250 2 0.427903 0.403855 0.588083
246 1 0.372883 0.383474 0.622903
248 2 0.377713 0.394808 0.698059
317 2 0.0943591 0.168082 0.560861
249 2 0.361488 0.319242 0.617408
247 2 0.320847 0.416017 0.594962
265 2 0.0994621 0.109155 0.848429
319 2 0.124394 0.124987 0.667769
58 2 0.507065 0.136876 0.6488
178 2 0.25097 0.399131 0.894116
123 2 0.0939614 0.382866 0.681123
176 1 0.226038 0.423789 0.828312
180 2 0.202035 0.370405 0.790672
121 1 0.0316269 0.39531 0.703074
125 2 0.0371635 0.447689 0.750797
179 2 0.176748 0.470384 0.832826
316 1 0.0735732 0.128983 0.618915
124 2 0.995102 0.413496 0.643622
318 2 0.0584137 0.0681363 0.590826
320 2 0.0224162 0.152845 0.659039
261 1 0.107852 0.0410289 0.842428
264 2 0.171706 0.026245 0.845647
177 2 0.274036 0.449694 0.787536
75 2 0.528662 0.291857 0.521572
71 1 0.579677 0.331414 0.532621
122 2 0.00420175 0.342407 0.73662
69 2 0.628905 0.43357 0.759693
73 2 0.636236 0.300143 0.545506
217 2 0.869499 0.324719 0.538867
74 2 0.566345 0.376449 0.585381
168 2 0.889061 0.0724285 0.575089
67 2 0.533459 0.445384 0.81182
274 2 0.580841 0.0741519 0.492736
213 2 0.798085 0.276461 0.898473
271 1 0.590466 0.0153065 0.527334
68 2 0.566178 0.347523 0.770223
60 2 0.470078 0.22441 0.709905
212 2 0.783052 0.264285 0.0225166
291 1 0.540391 0.198323 0.93667
293 2 0.564209 0.14108 0.910244
295 2 0.57976 0.249601 0.925955
66 1 0.584758 0.405146 0.803887
215 2 0.880063 0.28357 0.984034
211 1 0.815545 0.29693 0.969631
242 2 0.658107 0.211901 0.710671
241 1 0.713895 0.177279 0.700485
245 2 0.71768 0.126663 0.748081
243 2 0.716034 0.155765 0.629199
244 2 0.765789 0.216029 0.707882
296 1 0.868244 0.0373967 0.784446
97 2 0.832938 0.430251 0.678076
297 2 0.91904 -0.00031728 0.771501
99 2 0.85992 0.412419 0.798476
96 1 0.810636 0.422741 0.749083
100 2 0.779637 0.477344 0.768765
300 2 0.86336 0.0886373 0.738581
298 2 0.812675 1.00276 0.785122
98 2 0.765127 0.37155 0.750762
166 1 0.888709 0.0376339 0.510652
70 2 0.606799 0.386628 0.871524
92 2 0.695211 0.432549 0.0233608
43 2 0.764882 0.452154 0.51042
272 2 0.620835 0.0226396 0.595125
42 2 0.671083 0.482414 0.549731
157 2 0.465149 0.7353 0.565259
156 1 0.419982 0.770188 0.527754
160 2 0.36394 0.765184 0.570902
188 2 0.108392 0.807866 0.923628
134 2 0.313655 0.992486 0.697679
29 2 0.483687 0.522444 0.96747
90 2 0.35555 0.603764 0.531062
28 2 0.38603 0.566598 0.984424
132 2 0.408136 0.954748 0.652576
262 2 0.080532 0.0126818 0.781797
4 2 0.423464 0.991781 0.00572728
135 2 0.323613 0.968518 0.577694
89 2 0.263841 0.656502 0.50976
86 1 0.288763 0.604032 0.54517
87 2 0.280456 0.611102 0.617679
263 2 0.0824901 1.0123 0.90441
202 2 0.146963 0.588206 0.687451
155 2 0.0731877 0.891186 0.669381
62 2 0.220127 0.597835 0.958137
153 2 0.1735 0.90568 0.631096
131 1 0.34299 0.952483 0.648548
133 2 0.326837 0.891064 0.667248
205 2 0.101329 0.581179 0.799698
151 1 0.125903 0.860961 0.643455
204 2 0.084723 0.66584 0.721225
88 2 0.259595 0.548315 0.519579
152 2 0.150924 0.821352 0.694324
287 2 0.436865 0.689878 0.820187
288 2 0.485685 0.648653 0.719007
286 1 0.428018 0.65567 0.755684
127 2 0.253338 0.776522 0.809392
130 2 0.254384 0.849727 0.896315
126 1 0.285228 0.796176 0.871096
128 2 0.279819 0.748719 0.922933
129 2 0.350216 0.808086 0.858213
201 1 0.126299 0.620529 0.747818
203 2 0.178311 0.647006 0.781904
289 2 0.405653 0.594333 0.766869
26 1 0.422584 0.510556 0.988934
154 2 0.114355 0.823792 0.581785
225 2 0.0117685 0.613515 0.545932
190 2 0.0425805 0.861027 0.846268
186 1 0.0467385 0.815205 0.89951
257 2 0.504143 0.963139 0.787731
221 1 0.011403 0.558728 0.504083
290 2 0.387385 0.686079 0.708773
189 2 0.0240836 0.757374 0.877983
224 2 0.0539406 0.513344 0.53021
169 2 0.833314 1.0033 0.502705
187 2 0.00882558 0.832 0.96016
258 2 0.538495 0.896192 0.878493
256 1 0.551688 0.952065 0.838229
260 2 0.547547 1.00297 0.887056
22 2 0.773739 0.922683 0.0621384
91 1 0.700285 0.497482 0.996966
223 2 0.949828 0.531939 0.499107
299 2 0.877465 0.0591275 0.854114
23 2 0.737775 0.836014 0.998401
94 2 0.696957 0.496014 0.921921
259 2 0.611681 0.949816 0.803125
192 2 0.741817 0.770183 0.516285
195 2 0.685051 0.826111 0.601811
45 2 0.759846 0.533585 0.592249
191 1 0.696663 0.819346 0.526845
280 2 0.691898 0.69523 0.724901
279 2 0.66404 0.635008 0.82411
41 1 0.730899 0.504201 0.532264
276 1 0.670056 0.697384 0.795626
278 2 0.707041 0.737471 0.83713
277 2 0.608189 0.721966 0.795561
193 2 0.725322 0.876831 0.504654
138 2 0.864639 0.635256 0.828621
137 2 0.930008 0.628167 0.926919
139 2 0.947577 0.562199 0.827725
136 1 0.901359 0.594121 0.871679
140 2 0.863836 0.550973 0.90453
240 2 0.874241 0.826984 0.751646
237 2 0.856391 0.748387 0.669944
238 2 0.954967 0.767831 0.703991
239 2 0.897456 0.838467 0.63083
236 1 0.897005 0.796025 0.688635
ITEM: TIMESTEP
800
ITEM: NUMBER OF ATOMS
320
ITEM: BOX BOUNDS pp pp pp
-8.297 8.3174
-8.1455 8.1829
-7.2013 7.1735
ITEM: ATOMS id type xs ys zs
267 2 0.181884 0.0730449 0.186276
266 1 0.215264 0.0971212 0.127401
269 2 0.226287 0.0462547 0.0795584
268 2 0.274265 0.120257 0.1495
16 1 0.074931 0.199418 0.336711
20 2 0.0727493 0.17437 0.266694
270 2 0.184063 0.146274 0.0937823
109 2 0.210946 0.341343 0.204177
106 1 0.180666 0.399002 0.221866
284 2 0.395802 0.132571 0.298357
281 1 0.456866 0.13213 0.324845
15 2 0.46334 0.334526 0.348045
55 2 0.268238 0.291939 0.02166
51 1 0.331412 0.28674 0.0382284
110 2 0.137174 0.410336 0.165138
11 1 0.416405 0.349098 0.299385
108 2 0.22041 0.451647 0.225104
14 2 0.43913 0.390336 0.243604
142 2 0.0509169 0.252168 0.990125
12 2 0.365443 0.376713 0.336026
54 2 0.34403 0.226192 0.0661229
19 2 0.0626619 0.266368 0.338027
282 2 0.492669 0.095211 0.277703
17 2 0.136045 0.187478 0.366452
145 2 0.0941874 0.349057 0.991873
13 2 0.395443 0.290666 0.269082
52 2 0.350945 0.331526 0.0910597
2 2 0.386886 -0.00830749 0.125905
107 2 0.14442 0.397042 0.286804
207 2 0.22214 0.111698 0.498595
208 2 0.322404 0.0737143 0.4855
3 2 0.467062 0.0591998 0.120569
48 2 0.108231 0.347202 0.47805
1 1 0.421073 0.0308462 0.0774709
5 2 0.383576 0.0764541 0.044926
18 2 0.0263635 0.16715 0.376872
285 2 0.456876 0.101657 0.393679
47 2 0.210864 0.367413 0.449279
209 2 0.260355 0.0893449 0.384502
206 1 0.275711 0.111055 0.453828
283 2 0.484037 0.193991 0.329078
9 2 0.746005 0.0855197 0.156
254 2 0.55973 0.290437 0.16753
7 2 0.716041 0.131494 0.0505419
6 1 0.696674 0.115742 0.119939
8 2 0.643427 0.0767758 0.116444
10 2 0.680563 0.172047 0.154533
303 2 0.691156 0.146547 0.319183
301 1 0.663195 0.196522 0.359721
302 2 0.654606 0.251047 0.314256
304 2 0.704272 0.212546 0.415986
105 2 0.943252 0.271892 0.236161
103 2 0.880631 0.360665 0.25125
101 1 0.883195 0.297911 0.223027
102 2 0.875747 0.298444 0.147617
104 2 0.835935 0.260544 0.249794
305 2 0.605254 0.182629 0.390622
36 1 0.922367 0.0521773 0.210314
255 2 0.569579 0.354395 0.0665873
251 1 0.589931 0.343722 0.13747
252 2 0.582531 0.399576 0.178553
37 2 0.883978 0.0335235 0.153852
253 2 0.65183 0.328993 0.132027
72 2 0.586451 0.345869 0.469021
38 2 0.971655 0.0888456 0.185557
82 2 0.7063 0.394961 0.319604
85 2 0.772883 0.479977 0.312781
218 2 0.925648 0.336778 0.474977
39 2 0.890628 0.0889004 0.262035
81 1 0.727399 0.446211 0.276898
170 2 0.920149 1.00498 0.534443
307 2 0.564347 0.493137 0.384226
40 2 0.945533 -0.00162427 0.244092
83 2 0.758363 0.42114 0.216897
216 1 0.865679 0.311359 0.480069
219 2 0.874337 0.247301 0.458636
220 2 0.830868 0.342547 0.430068
292 2 0.52019 0.168746 0.985972
214 2 0.839452 0.360854 0.955889
275 2 0.620915 0.95556 0.523462
167 2 0.930583 0.0522132 0.421786
233 2 0.467784 0.937844 0.374336
116 1 0.0812662 0.915172 0.144312
312 2 0.319975 0.767046 0.164176
314 2 0.232334 0.807551 0.119578
313 2 0.324345 0.841185 0.0759423
311 1 0.29332 0.821302 0.139105
315 2 0.295279 0.868768 0.191748
117 2 0.0482951 0.97406 0.148889
118 2 0.144818 0.916725 0.171325
119 2 0.0483501 0.860518 0.173392
161 1 0.112392 0.658931 0.257681
120 2 0.0897321 0.899098 0.0710078
162 2 0.0742566 0.6084 0.282081
183 2 0.981918 0.857602 0.333763
184 2 0.995164 0.759893 0.380984
164 2 0.0754195 0.707918 0.225373
165 2 0.147234 0.681524 0.318443
227 2 0.201981 0.964465 0.31633
226 1 0.193241 0.917074 0.367571
228 2 0.137081 0.925726 0.403051
163 2 0.151131 0.636775 0.202107
229 2 0.19575 0.860213 0.327488
230 2 0.244302 0.914686 0.415371
222 2 0.985321 0.541464 0.432319
158 2 0.467413 0.818361 0.57209
64 2 0.192844 0.663696 0.0237894
61 1 0.162259 0.607609 0.0052206
27 2 0.416706 0.491239 0.085416
309 2 0.482099 0.559131 0.357823
63 2 0.146865 0.569284 0.0673197
159 2 0.438707 0.817011 0.457771
65 2 0.10637 0.624837 0.973508
148 2 0.914533 0.453112 0.10173
146 1 0.939067 0.510566 0.119216
273 2 0.521648 0.996724 0.528722
310 2 0.52176 0.55911 0.469836
84 2 0.678431 0.486287 0.253159
181 1 0.98258 0.82166 0.396301
185 2 0.926761 0.826818 0.434267
149 2 0.891392 0.555178 0.13141
147 2 0.976689 0.511346 0.181352
150 2 0.974732 0.532397 0.0598653
231 1 0.522224 0.920447 0.333219
235 2 0.498168 0.915958 0.26485
232 2 0.552267 0.862786 0.351903
182 2 0.034452 0.847544 0.434579
234 2 0.564443 0.972207 0.335789
172 2 0.804806 0.934492 0.301936
175 2 0.715088 0.872945 0.310457
174 2 0.713431 0.972786 0.253667
171 1 0.739542 0.936496 0.311182
173 2 0.721312 0.959822 0.378351
113 2 0.83639 0.650683 0.289782
111 1 0.799369 0.681644 0.3408
115 2 0.742852 0.703079 0.313089
114 2 0.792292 0.636333 0.395337
112 2 0.830845 0.732316 0.366371
33 2 0.926505 0.811298 0.0561931
35 2 0.948738 0.762063 0.167349
31 1 0.901672 0.79143 0.123514
198 2 0.558211 0.773277 0.0877122
200 2 0.558136 0.730978 0.972653
199 2 0.544221 0.667883 0.0712862
196 1 0.53167 0.726573 0.0429641
308 2 0.576132 0.603525 0.379371
197 2 0.465315 0.734402 0.0384712
34 2 0.882425 0.84584 0.160485
306 1 0.53653 0.552917 0.399126
93 2 0.745216 0.551694 0.0520227
32 2 0.850252 0.751502 0.112285
44 2 0.685963 0.567351 0.485567
194 2 0.674092 0.817702 0.478175
25 2 0.751836 0.901588 0.961374
95 2 0.651142 0.517464 0.00973777
24 2 0.665755 0.943325 0.0200422
21 1 0.718696 0.905947 0.0269287
141 1 0.0506716 0.311075 0.955313
143 2 0.0680201 0.305926 0.883295
46 1 0.169736 0.349818 0.502329
50 2 0.171628 0.395639 0.55485
144 2 0.9912 0.338429 0.962861
53 2 0.362739 0.296184 0.975005
30 2 0.436279 0.469137 0.963224
49 2 0.186465 0.28912 0.534222
210 2 0.293956 0.174846 0.449016
78 2 0.27396 0.139277 0.795413
77 2 0.281936 0.243385 0.777456
59 2 0.447658 0.158779 0.617134
80 2 0.234403 0.204481 0.878066
76 1 0.283701 0.196585 0.831607
79 2 0.34198 0.200518 0.863962
294 2 0.492353 0.252985 0.91405
56 1 0.477662 0.157676 0.683254
57 2 0.491632 0.0931667 0.703087
250 2 0.421139 0.406301 0.572933
246 1 0.383585 0.377108 0.62552
248 2 0.391878 0.405561 0.694368
317 2 0.0563856 0.189312 0.536751
249 2 0.403705 0.314978 0.633142
247 2 0.320377 0.379701 0.603597
265 2 0.113858 0.0993007 0.808597
319 2 0.128419 0.177832 0.620885
58 2 0.53557 0.191423 0.679801
178 2 0.288506 0.416862 0.892284
123 2 0.0882171 0.406875 0.700558
176 1 0.241664 0.43465 0.845013
180 2 0.248713 0.403215 0.780112
121 1 0.0232528 0.396193 0.698639
125 2 0.993198 0.451604 0.721258
179 2 0.181731 0.426682 0.875986
316 1 0.07666 0.147935 0.590641
124 2 1.00499 0.377326 0.629685
318 2 0.0883734 0.0883102 0.561039
320 2 0.0265954 0.144185 0.637636
261 1 0.113099 0.0467549 0.856767
264 2 0.174269 0.0383524 0.877685
177 2 0.241238 0.498094 0.83097
75 2 0.521586 0.272429 0.532881
71 1 0.575881 0.309993 0.532229
122 2 0.0153782 0.345077 0.7448
69 2 0.604397 0.483524 0.770276
73 2 0.630599 0.273717 0.541592
217 2 0.841402 0.319723 0.550494
74 2 0.564804 0.349646 0.591977
168 2 0.886411 0.109244 0.518309
67 2 0.529061 0.416336 0.802469
274 2 0.601532 0.0564143 0.491039
213 2 0.797036 0.282953 0.890115
271 1 0.584365 0.00899014 0.539258
68 2 0.62025 0.376834 0.746537
60 2 0.440927 0.186208 0.740594
212 2 0.777473 0.29182 0.00943092
291 1 0.538361 0.206496 0.924314
293 2 0.545736 0.166459 0.863773
295 2 0.593667 0.240065 0.936827
66 1 0.59436 0.422363 0.795652
215 2 0.873902 0.260071 -0.0197413
211 1 0.822427 0.297574 0.958086
242 2 0.671727 0.219269 0.713666
241 1 0.722881 0.185964 0.68072
245 2 0.706754 0.122391 0.667124
243 2 0.745415 0.220645 0.620518
244 2 0.771587 0.18149 0.730134
296 1 0.863896 0.0425853 0.784422
97 2 0.827366 0.377031 0.697587
297 2 0.893273 0.00106685 0.834078
99 2 0.873031 0.422821 0.791685
96 1 0.818 0.422986 0.751059
100 2 0.801421 0.482062 0.728603
300 2 0.909182 0.067898 0.736427
298 2 0.820884 0.00736273 0.740057
98 2 0.775724 0.396194 0.80235
166 1 0.893422 0.0489158 0.484557
70 2 0.6191 0.41675 0.865455
92 2 0.728589 0.44567 0.0217581
43 2 0.700426 0.461148 0.502285
272 2 0.596847 0.0269973 0.611345
42 2 0.693168 0.525747 0.598658
157 2 0.425136 0.727822 0.529367
156 1 0.423456 0.79334 0.525621
160 2 0.362516 0.815424 0.543588
188 2 0.103687 0.845784 0.8603
134 2 0.335232 0.0164548 0.702824
29 2 0.502529 0.532211 0.0269901
90 2 0.331837 0.5988 0.464422
28 2 0.406595 0.569182 0.998993
132 2 0.379783 0.991264 0.592559
262 2 0.0915119 0.995107 0.818931
4 2 0.450725 0.995443 0.0227417
135 2 0.292457 0.940983 0.629072
89 2 0.225493 0.611014 0.478128
86 1 0.281141 0.60344 0.516608
87 2 0.2923 0.651432 0.564882
263 2 0.0692357 0.0592871 0.911136
202 2 0.189352 0.59752 0.72192
155 2 0.0549029 0.863944 0.660229
62 2 0.192764 0.570018 0.954195
153 2 0.150831 0.917322 0.676106
131 1 0.350086 0.966973 0.654706
133 2 0.386523 0.920144 0.687759
205 2 0.11559 0.582395 0.813079
151 1 0.120762 0.858251 0.658379
204 2 0.0856101 0.618492 0.70067
88 2 0.281328 0.547416 0.558027
152 2 0.140313 0.808864 0.70224