ITEM: TIMESTEP
0
ITEM: NUMBER OF ATOMS
320
ITEM: BOX BOUNDS pp pp pp
-8.297 8.3174
-8.1455 8.1829
-7.2013 7.1735
ITEM: ATOMS id type x y z ix iy iz
46 1 -3.18498 -1.13495 -3.81718 0 0 0
48 2 -2.93563 -0.931345 -2.79111 0 0 0
314 2 0.00483541 -5.83236 -5.29303 1 0 0
47 2 -3.47332 -2.20181 -3.91418 0 0 0
50 2 -3.97873 -0.456279 -4.12689 0 0 0
49 2 -2.27978 -0.960329 -4.37237 0 0 0
185 2 -1.19515 -3.5715 -5.21619 1 -1 1
151 1 -6.56536 -1.65595 -1.18698 1 -1 0
226 1 -5.38534 -7.75154 -1.85018 1 1 0
230 2 -5.51265 -7.06962 -2.72666 1 1 0
72 2 -3.70006 -4.82665 -7.00601 1 0 0
227 2 -4.73073 -7.4141 -1.0405 1 1 0
71 1 -4.43633 -4.28276 -6.36059 1 0 0
176 1 -1.54869 -4.62066 -2.5004 1 -1 0
152 2 -6.58556 -2.73311 -1.43315 1 -1 0
107 2 -3.95801 -7.99719 -6.41672 0 -1 0
180 2 -2.44254 -4.8946 -3.0127 1 -1 0
178 2 -0.67763 -5.11367 -2.93872 1 -1 0
13 2 -7.28587 -4.1248 -5.4284 1 -1 0
109 2 -3.83498 -7.29916 -4.77343 0 -1 0
229 2 -6.34643 -7.89481 -1.3504 1 1 0
153 2 -5.56482 -1.30431 -1.3099 1 -1 0
75 2 -4.3388 -4.58848 -5.31188 1 0 0
179 2 -1.66745 -4.95318 -1.49227 1 -1 0
12 2 -7.38973 -5.83209 -4.88861 1 -1 0
11 1 -7.87032 -4.85835 -4.85534 1 -1 0
154 2 -7.17288 -1.14685 -1.96771 1 -1 0
177 2 -1.50778 -3.53795 -2.47396 1 -1 0
181 1 -0.269967 -3.06296 -5.51863 1 -1 1
108 2 -2.3083 -7.64356 -5.63655 0 -1 0
106 1 -3.33615 -7.96726 -5.49205 0 -1 0
15 2 -7.94637 -4.48852 -3.82426 1 -1 0
183 2 -0.0600659 -3.32192 -6.56674 1 -1 1
261 1 -0.100202 -0.671052 -1.68484 1 -1 0
248 2 -1.60272 -7.72355 -3.01028 1 -1 0
74 2 -5.49028 -4.33507 -6.6733 1 0 0
155 2 -6.95905 -1.38981 -0.225413 1 -1 0
73 2 -4.14559 -3.23025 -6.44508 1 0 0
182 2 -0.466945 -1.98782 -5.39592 1 -1 1
104 2 -7.85849 -7.36729 -3.37274 1 0 0
262 2 -1.12631 -0.813466 -1.44869 1 -1 0
253 2 -6.41365 -6.77307 -6.88043 2 -1 1
164 2 -3.22721 -2.23038 -0.417786 1 -1 0
311 1 0.475588 -6.70047 -5.7355 1 0 0
313 2 0.165103 -6.84015 -6.79381 1 0 0
312 2 0.160205 -7.54035 -5.11089 1 0 0
184 2 0.522809 -3.3274 -4.80698 1 -1 1
263 2 0.485714 -1.37109 -1.05106 1 -1 0
14 2 7.78479 -4.96434 -5.3229 0 -1 0
315 2 1.53097 -6.56352 -5.61926 1 0 0
60 2 1.24867 -6.38067 -2.41132 0 0 0
86 1 6.34125 -1.14006 -2.64003 1 -1 0
95 2 4.30343 -3.47723 -4.36598 0 -1 0
91 1 3.27776 -3.76216 -4.5804 0 -1 0
92 2 2.73727 -3.86733 -3.62159 0 -1 0
93 2 3.31466 -4.65739 -5.19636 0 -1 0
94 2 2.83035 -2.97402 -5.19234 0 -1 0
305 2 6.62952 -6.02126 -2.12214 0 0 0
302 2 5.24741 -5.23413 -3.01754 0 0 0
24 2 3.61676 -1.35758 -0.373668 0 -1 0
301 1 5.82899 -5.26218 -2.05727 0 0 0
303 2 6.26424 -4.27234 -1.84755 0 0 0
21 1 3.21298 -2.25215 -0.76105 0 -1 0
304 2 5.19178 -5.47589 -1.22035 0 0 0
58 2 2.90827 -6.42163 -1.74529 0 0 0
56 1 1.87246 -6.23198 -1.55239 0 0 0
59 2 1.52622 -6.75378 -0.641672 0 0 0
90 2 6.16887 -1.93194 -3.37829 1 -1 0
87 2 6.16673 -0.177705 -3.15162 1 -1 0
89 2 5.63721 -1.28707 -1.81401 1 -1 0
130 2 3.94727 -0.681566 -4.06876 1 -1 1
37 2 5.46668 -2.93767 -6.70037 0 -1 1
88 2 7.36427 -1.18803 -2.25243 1 -1 0
52 2 5.61051 -5.76917 -6.0331 0 0 0
57 2 1.75359 -5.14822 -1.44749 0 0 0
103 2 7.11206 -7.96109 -3.5731 0 0 0
202 2 2.2738 -1.16496 -6.57094 1 0 1
22 2 2.58974 -2.03852 -1.5809 0 -1 0
55 2 5.05285 -7.32921 -6.73251 0 0 0
264 2 0.0352288 -0.850918 -2.76961 1 -1 0
210 2 3.35003 -7.94835 -4.15317 1 0 0
127 2 2.66659 -0.130644 -2.95217 1 -1 1
23 2 4.04119 -2.92661 -1.03364 0 -1 0
54 2 6.79787 -7.06939 -6.60329 0 0 0
51 1 5.83025 -6.55622 -6.78428 0 0 0
254 2 -6.53824 7.74224 -6.79611 2 -2 1
247 2 -2.55408 7.56537 -1.85451 1 -2 0
249 2 -0.818291 7.61069 -1.77993 1 -2 0
246 1 -1.64626 7.64314 -2.48435 1 -2 0
228 2 -5.07957 7.62783 -2.2767 1 0 0
105 2 -8.12689 7.56615 -4.36694 1 -1 0
64 2 -0.52576 0.94675 -6.50436 1 0 0
212 2 -5.78029 1.91156 -1.05514 2 -1 1
110 2 -3.31011 7.34997 -5.07347 0 -2 0
112 2 -7.42386 0.697428 -7.13337 1 -1 1
17 2 -4.88219 2.71127 -6.17207 0 -1 1
19 2 -3.17661 2.27951 -6.3427 0 -1 1
18 2 -4.43914 1.0304 -5.99592 0 -1 1
16 1 -4.11358 2.03482 -5.783 0 -1 1
214 2 -4.85165 1.39626 -2.50592 2 -1 1
215 2 -5.74848 2.97474 -2.52227 2 -1 1
211 1 -5.16947 2.28054 -1.90695 2 -1 1
213 2 -4.25771 2.77298 -1.57672 2 -1 1
199 2 -0.744051 3.48037 -3.21892 0 -1 1
196 1 -1.58538 3.6911 -2.57455 0 -1 1
200 2 -2.44571 3.9163 -3.23296 0 -1 1
197 2 -1.77854 2.76472 -2.01614 0 -1 1
61 1 -0.360062 1.23773 -5.47487 1 0 0
65 2 -1.33158 1.37357 -4.97269 1 0 0
250 2 -1.50401 6.79451 -3.15452 1 -2 0
172 2 -5.78966 5.9505 -5.49329 1 -1 0
171 1 -5.83904 5.46511 -4.51098 1 -1 0
173 2 -4.84507 5.1288 -4.19785 1 -1 0
174 2 -6.19627 6.14797 -3.79245 1 -1 0
143 2 -2.08585 4.8495 -5.56245 1 -1 0
175 2 -6.50133 4.61713 -4.54797 1 -1 0
141 1 -1.1791 5.29994 -5.94676 1 -1 0
167 2 -7.10018 3.93568 -0.0995171 1 -1 0
145 2 -0.700231 4.66974 -6.69663 1 -1 0
168 2 -7.48016 5.50441 -0.84304 1 -1 0
198 2 -1.28823 4.46047 -1.88034 0 -1 1
142 2 -0.445574 5.51939 -5.17679 1 -1 0
20 2 -3.92887 2.25257 -4.71479 0 -1 1
2 2 -8.17447 2.4742 -3.80278 1 -1 0
144 2 -1.46143 6.25438 -6.40526 1 -1 0
122 2 -3.88951 5.65306 -7.19514 1 -1 0
265 2 0.136889 0.364919 -1.39892 1 -1 0
207 2 3.51547 7.07656 -5.46166 1 -1 0
113 2 7.664 1.50627 -6.68472 0 -1 1
62 2 0.126778 0.413455 -5.01154 1 0 0
63 2 0.238249 2.13647 -5.43192 1 0 0
101 1 8.16475 8.06755 -3.44853 0 -1 0
126 1 3.3156 0.168947 -3.78527 1 -1 1
134 2 7.21252 8.08177 -0.561363 1 -1 0
129 2 3.9116 1.01087 -3.44676 1 -1 1
102 2 8.28493 7.43764 -2.55911 0 -1 0
206 1 3.09082 7.36197 -4.47492 1 -1 0
209 2 3.49878 6.64433 -3.75073 1 -1 0
128 2 2.67101 0.457634 -4.60036 1 -1 1
208 2 2.01092 7.25882 -4.49458 1 -1 0
284 2 1.53021 5.49858 -2.0689 1 -1 -1
282 2 1.77876 4.26914 -3.25509 1 -1 -1
281 1 2.08053 4.59286 -2.26999 1 -1 -1
283 2 3.16335 4.77821 -2.28996 1 -1 -1
285 2 1.78501 3.85686 -1.57106 1 -1 -1
232 2 5.69787 1.25536 -5.50831 1 0 0
4 2 6.71755 2.31856 -3.33687 0 -1 0
5 2 8.01682 1.68313 -2.22471 0 -1 0
1 1 7.74213 2.41843 -2.94226 0 -1 0
231 1 4.97102 1.71732 -6.18194 1 0 0
3 2 7.86353 3.3942 -2.45523 0 -1 0
84 2 5.30584 5.35175 -5.3077 0 -2 0
82 2 5.36027 4.32861 -3.87696 0 -2 0
83 2 6.71522 4.33686 -4.97861 0 -2 0
85 2 6.30959 5.79367 -3.96417 0 -2 0
81 1 5.94616 4.94811 -4.52787 0 -2 0
233 2 4.31104 2.39717 -5.65233 1 0 0
270 2 5.1648 6.0376 -0.472766 1 -1 0
260 2 7.6866 0.699789 -0.0352628 1 -2 0
234 2 5.46672 2.2686 -7.02578 1 0 0
204 2 1.99876 0.526861 -7.18336 1 0 1
267 2 6.53243 4.89367 -0.26701 1 -1 0
279 2 7.54239 5.9168 -6.8428 0 0 1
235 2 4.41915 0.877473 -6.55635 1 0 0
163 2 -4.06179 -2.74765 1.15988 1 -1 0
251 1 -6.66727 -7.69202 6.95761 2 -1 0
161 1 -3.15982 -2.37987 0.663376 1 -1 0
97 2 -1.71654 -7.73383 6.48542 1 -1 -1
100 2 -1.44025 -5.96744 6.19179 1 -1 -1
99 2 -2.96261 -6.6932 5.6959 1 -1 -1
98 2 -1.48955 -7.17411 4.80703 1 -1 -1
96 1 -1.88218 -6.86564 5.78181 1 -1 -1
272 2 -3.82358 -4.60703 3.9174 2 0 0
274 2 -4.93624 -4.00633 5.11847 2 0 0
271 1 -4.87323 -4.52495 4.18583 2 0 0
273 2 -5.25231 -5.5286 4.38329 2 0 0
275 2 -5.36398 -3.95796 3.38326 2 0 0
188 2 -8.01086 -1.30215 3.14686 1 -1 0
146 1 -0.00904771 -5.05702 1.97544 1 0 -1
148 2 -0.994926 -4.83263 2.36227 1 0 -1
165 2 -2.41363 -3.2133 0.81989 1 -1 0
186 1 -8.23989 -1.60335 4.16555 1 -1 0
190 2 -7.81541 -0.810876 4.82143 1 -1 0
26 1 -2.21826 -2.23937 5.52612 0 0 0
30 2 -3.17686 -1.82972 5.84106 0 0 0
28 2 -1.42806 -1.62847 5.99396 0 0 0
29 2 -2.08985 -2.04831 4.45592 0 0 0
255 2 -6.02336 -7.67461 6.07316 2 -1 0
222 2 -3.51459 -7.52023 0.647124 1 0 -1
27 2 -2.16873 -3.29617 5.82595 0 0 0
224 2 -3.64219 -7.70713 2.40533 1 0 -1
221 1 -3.10474 -7.18709 1.57408 1 0 -1
252 2 -7.73638 -7.61786 6.67228 2 -1 0
162 2 -2.9267 -1.49025 1.23074 1 -1 0
225 2 -2.04316 -7.42566 1.61266 1 0 -1
297 2 -5.64384 -1.61313 3.26726 1 -1 0
239 2 -6.77641 -8.05294 3.83949 1 0 0
296 1 -5.12993 -0.641497 3.21576 1 -1 0
147 2 -0.00786093 -5.76629 1.13628 1 0 -1
187 2 -7.68579 -2.53022 4.38281 1 -1 0
7 2 -8.01204 -5.43804 2.69894 1 0 0
223 2 -3.30032 -6.11702 1.72808 1 0 -1
299 2 -4.12522 -0.814739 3.63109 1 -1 0
300 2 -5.06378 -0.34555 2.16002 1 -1 0
38 2 5.07887 -1.31804 7.01496 0 -1 0
36 1 5.57573 -2.28242 6.80721 0 -1 0
40 2 5.05127 -2.73466 5.96076 0 -1 0
133 2 7.99303 -6.88361 0.254497 1 0 0
150 2 0.448371 -4.12734 1.64361 1 0 -1
149 2 0.538413 -5.37257 2.85566 1 0 -1
289 2 0.506265 -1.68118 3.56191 1 0 -1
25 2 2.62414 -2.6588 0.0287851 0 -1 0
290 2 2.23211 -1.87156 3.74145 1 0 -1
189 2 7.29802 -1.67305 4.23161 0 -1 0
201 1 2.04784 -0.558234 6.90168 1 0 0
53 2 5.82991 -6.07877 6.59756 0 0 -1
309 2 1.66367 -5.51292 5.81922 1 0 -2
39 2 6.66686 -2.14267 6.57589 0 -1 0
307 2 1.43328 -3.75846 5.40407 1 0 -2
308 2 2.38702 -4.29909 6.87821 1 0 -2
8 2 7.54274 -6.65135 3.43436 0 0 0
10 2 6.81917 -5.34949 2.44552 0 0 0
310 2 2.98165 -4.51936 5.26624 1 0 -2
9 2 7.54142 -4.98333 4.06197 0 0 0
6 1 7.63716 -5.61678 3.16144 0 0 0
67 2 3.76057 -6.23416 0.55189 0 0 0
68 2 2.78056 -5.88661 1.96075 0 0 0
66 1 3.81515 -5.99595 1.59685 0 0 0
70 2 4.30934 -5.00283 1.69144 0 0 0
69 2 4.32602 -6.71362 2.24475 0 0 0
306 1 2.07994 -4.50384 5.8533 1 0 -2
159 2 5.37324 -3.35719 2.95166 0 0 0
158 2 5.46055 -1.6135 2.59089 0 0 0
156 1 5.00636 -2.57728 2.31429 0 0 0
157 2 3.92647 -2.47078 2.30184 0 0 0
160 2 5.35011 -2.76095 1.3041 0 0 0
135 2 6.28421 -7.06998 0.396511 1 0 0
203 2 1.07576 -0.899523 6.505 1 0 0
286 1 1.44624 -1.13288 3.48395 1 0 -1
205 2 2.78429 -0.710896 6.10075 1 0 0
287 2 1.56221 -0.748819 2.47205 1 0 -1
288 2 1.50123 -0.301173 4.18084 1 0 -1
131 1 7.19241 -7.62129 0.304703 1 0 0
138 2 1.20764 -8.04616 5.71554 1 0 0
111 1 -8.14573 1.43256 6.9457 1 -1 0
166 1 -7.00574 5.03702 0.0230091 1 -1 0
170 2 -5.94356 5.31045 0.0601516 1 -1 0
298 2 -5.65109 0.0829894 3.83662 1 -1 0
114 2 -7.60791 2.37472 6.80998 1 -1 0
169 2 -7.47257 5.38389 0.945139 1 -1 0
237 2 -6.38952 8.03691 2.13168 1 -1 0
238 2 -6.03302 6.7529 3.30266 1 -1 0
236 1 -6.72859 7.53565 3.03869 1 -1 0
240 2 -7.75131 7.1463 2.91293 1 -1 0
220 2 -1.47058 1.75372 4.54405 1 -1 0
125 2 -3.88669 6.65289 5.70134 1 -1 -1
121 1 -3.94278 5.62423 6.10573 1 -1 -1
123 2 -3.11431 5.11411 5.71058 1 -1 -1
124 2 -4.88983 5.1058 5.905 1 -1 -1
219 2 -2.69928 2.38476 5.62216 1 -1 0
216 1 -2.53948 1.78388 4.77145 1 -1 0
32 2 -1.26615 0.859573 0.692419 1 -1 0
35 2 -2.80659 1.4024 0.0418249 1 -1 0
31 1 -2.00175 1.67679 0.680025 1 -1 0
34 2 -1.56931 2.55869 0.234114 1 -1 0
33 2 -2.42706 1.96485 1.64513 1 -1 0
193 2 -7.66868 3.3208 4.60412 1 -1 0
192 2 -6.60048 3.97286 3.33996 1 -1 0
191 1 -6.69855 3.19263 4.10606 1 -1 0
195 2 -5.85562 3.19056 4.80669 1 -1 0
194 2 -6.78777 2.21968 3.64009 1 -1 0
292 2 -1.43668 4.46149 2.77143 1 -1 -1
295 2 -1.56293 5.6513 1.45722 1 -1 -1
293 2 -2.76523 5.60877 2.71656 1 -1 -1
291 1 -1.71044 5.49226 2.48918 1 -1 -1
218 2 -3.05921 2.22737 3.89499 1 -1 0
294 2 -1.13341 6.20302 3.02375 1 -1 -1
217 2 -3.02354 0.818596 4.95186 1 -1 0
280 2 -8.16009 4.66137 6.69833 1 0 0
277 2 6.77767 4.9809 6.25101 0 0 0
257 2 8.04977 1.73534 1.32176 1 -2 0
137 2 2.70222 7.65048 6.49329 1 -1 0
136 1 1.9912 7.57059 5.6316 1 -1 0
139 2 2.52395 7.68266 4.69444 1 -1 0
278 2 8.08581 6.15917 5.84194 0 0 0
242 2 5.97827 7.82983 4.66479 1 -2 -1
256 1 7.27242 1.15703 0.853988 1 -2 0
259 2 6.40802 1.77346 0.55673 1 -2 0
115 2 8.06513 1.1112 6.00918 0 -1 0
258 2 7.01327 0.386696 1.57848 1 -2 0
132 2 7.34141 8.10319 1.22375 1 -1 0
319 2 1.34426 1.78134 1.05887 1 -1 0
317 2 3.00531 1.66087 1.72523 1 -1 0
140 2 1.57655 6.5605 5.64346 1 -1 0
268 2 4.79873 4.358 0.0293275 1 -1 0
117 2 1.88443 6.18978 2.77489 1 -1 1
316 1 2.4139 1.82669 0.818375 1 -1 0
116 1 2.25719 5.79844 1.85739 1 -1 1
119 2 2.07684 6.47355 1.01826 1 -1 1
120 2 3.29245 5.57058 1.94072 1 -1 1
276 1 7.71202 5.4301 6.58647 0 0 0
243 2 6.52547 6.68497 3.34801 1 -2 -1
266 1 5.54021 5.20005 0.0823198 1 -1 0
269 2 5.65284 5.43216 1.12914 1 -1 0
118 2 1.67442 4.89864 1.74414 1 -1 1
318 2 2.65672 1.10557 0.0450246 1 -1 0
320 2 2.59929 2.81263 0.396484 1 -1 0
241 1 5.69552 7.08387 3.93842 1 -2 -1
44 2 7.02137 3.61654 2.74909 0 0 0
244 2 5.31834 6.21096 4.49002 1 -2 -1
42 2 5.86898 4.1515 4.0559 0 0 0
43 2 5.42585 2.85303 2.9741 0 0 0
245 2 4.87607 7.43257 3.29191 1 -2 -1
45 2 6.72626 2.57455 4.12174 0 0 0
41 1 6.25122 3.29936 3.48588 0 0 0
78 2 3.25428 3.13919 4.27709 0 -1 0
79 2 1.95911 4.30964 4.51355 0 -1 0
80 2 3.52464 4.60128 5.35305 0 -1 0
77 2 2.4327 3.2229 5.85191 0 -1 0
76 1 2.81514 3.83878 5.00152 0 -1 0
ITEM: TIMESTEP
400
ITEM: NUMBER OF ATOMS
320
ITEM: BOX BOUNDS pp pp pp
-8.297 8.3174
-8.1455 8.1829
-7.2013 7.1735
ITEM: ATOMS id type x y z ix iy iz
46 1 -3.17253 -1.24026 -3.94193 0 0 0
48 2 -3.20326 -0.807139 -2.9413 0 0 0
314 2 0.140177 -6.00784 -4.98935 1 0 0
47 2 -2.33296 -1.96041 -3.99615 0 0 0
50 2 -4.11118 -1.74252 -4.16343 0 0 0
49 2 -3.00989 -0.491853 -4.71002 0 0 0
185 2 -1.14473 -3.32664 -5.99275 1 -1 1
151 1 -6.69346 -1.92827 -0.831952 1 -1 0
226 1 -5.11521 -7.75091 -1.79504 1 1 0
230 2 -6.00374 -7.47703 -2.37647 1 1 0
72 2 -3.75301 -5.32993 -6.53692 1 0 0
227 2 -4.32904 -7.15473 -2.22856 1 1 0
71 1 -4.17371 -4.32567 -6.43443 1 0 0
176 1 -1.63191 -4.94547 -2.38329 1 -1 0
152 2 -7.23318 -2.22704 -1.75792 1 -1 0
107 2 -4.03683 -7.62878 -6.18678 0 -1 0
180 2 -2.5398 -4.69472 -2.93693 1 -1 0
178 2 -0.882792 -5.5059 -2.97371 1 -1 0
13 2 -7.20044 -3.67999 -4.28865 1 -1 0
109 2 -4.17875 -7.26318 -4.51537 0 -1 0
229 2 -5.17811 -7.50093 -0.749889 1 1 0
153 2 -6.23015 -2.78913 -0.406559 1 -1 0
75 2 -4.52333 -4.26547 -5.42331 1 0 0
179 2 -1.82231 -5.64193 -1.56618 1 -1 0
12 2 -7.28267 -4.87238 -5.62366 1 -1 0
11 1 -7.83566 -4.44486 -4.78238 1 -1 0
154 2 -5.87865 -1.2089 -1.10036 1 -1 0
177 2 -1.14512 -4.00697 -2.05159 1 -1 0
181 1 -0.246075 -2.96439 -5.50855 1 -1 1
108 2 -2.59758 -7.47693 -5.28365 0 -1 0
106 1 -3.59247 -7.84741 -5.21282 0 -1 0
15 2 -8.18496 -5.19281 -4.06273 1 -1 0
183 2 0.570179 -3.57342 -5.85647 1 -1 1
261 1 -0.0945395 -0.544849 -1.68202 1 -1 0
248 2 -2.04265 -8.38039 -1.80623 1 -1 0
74 2 -5.06469 -4.31637 -7.0364 1 0 0
155 2 -7.34628 -1.43268 -0.148146 1 -1 0
73 2 -3.55063 -3.47928 -6.68827 1 0 0
182 2 -0.132474 -1.93684 -5.83886 1 -1 1
104 2 -8.62775 -7.64191 -3.15456 1 0 0
262 2 -0.532257 -0.884441 -0.772582 1 -1 0
253 2 -6.3279 -6.94207 -6.95068 2 -1 1
164 2 -3.31444 -1.64316 -0.135664 1 -1 0
311 1 0.745967 -6.68172 -5.57841 1 0 0
313 2 0.952875 -6.21931 -6.56194 1 0 0
312 2 0.185686 -7.59955 -5.77613 1 0 0
184 2 -0.383679 -2.99142 -4.43247 1 -1 1
263 2 0.306446 0.467407 -1.48425 1 -1 0
14 2 7.8823 -3.97807 -5.15848 0 -1 0
315 2 1.68877 -6.85077 -5.11574 1 0 0
60 2 1.61489 -6.32497 -2.8276 0 0 0
86 1 6.51388 -1.17571 -3.01861 1 -1 0
95 2 4.27289 -4.17752 -5.27025 0 -1 0
91 1 3.33744 -4.03197 -4.75877 0 -1 0
92 2 3.49647 -4.01451 -3.67419 0 -1 0
93 2 2.61779 -4.79982 -4.98864 0 -1 0
94 2 2.87691 -3.08402 -5.01734 0 -1 0
305 2 6.4393 -6.09343 -2.0808 0 0 0
302 2 4.8557 -5.70388 -2.68105 0 0 0
24 2 3.0126 -1.29673 -0.667835 0 -1 0
301 1 5.74908 -5.274 -2.20889 0 0 0
303 2 6.19849 -4.56973 -2.8941 0 0 0
21 1 3.18658 -2.36704 -0.721348 0 -1 0
304 2 5.49939 -4.81537 -1.2874 0 0 0
58 2 2.62405 -6.18805 -1.37518 0 0 0
56 1 1.69887 -5.88524 -1.84451 0 0 0
59 2 0.906023 -6.3414 -1.22791 0 0 0
90 2 5.73936 -1.86816 -3.30337 1 -1 0
87 2 6.93396 -0.636299 -3.86772 1 -1 0
89 2 6.14409 -0.508756 -2.25878 1 -1 0
130 2 3.44922 -0.620011 -4.49096 1 -1 1
37 2 4.73683 -3.01209 6.61719 0 -1 0
88 2 7.29182 -1.77427 -2.56849 1 -1 0
52 2 5.64314 -6.13485 -5.6191 0 0 0
57 2 1.59601 -4.79075 -1.87511 0 0 0
103 2 6.67293 7.51421 -3.35214 0 -1 0
202 2 2.81216 -1.33695 -6.61085 1 0 1
22 2 2.82114 -2.70987 -1.68799 0 -1 0
55 2 4.59201 -6.78603 -6.82618 0 0 0
264 2 0.73009 -1.19346 -2.00991 1 -1 0
210 2 3.25564 7.69366 -5.17599 1 -1 0
127 2 2.54873 -0.460032 -2.98699 1 -1 1
23 2 4.30818 -2.57493 -0.800114 0 -1 0
54 2 6.09628 -7.59973 -6.3538 0 0 0
51 1 5.61781 -6.65581 -6.57147 0 0 0
254 2 -6.91567 7.81157 -6.51649 2 -2 1
247 2 -2.45796 6.38813 -2.4618 1 -2 0
249 2 -0.782564 6.75096 -1.91203 1 -2 0
246 1 -1.65947 7.13288 -2.40987 1 -2 0
228 2 -4.86035 7.55541 -1.96396 1 0 0
105 2 7.66355 7.95888 -4.79697 0 -1 0
64 2 -0.711245 1.11301 -6.49507 1 0 0
212 2 -5.81104 1.79084 -1.47249 2 -1 1
110 2 -3.58658 7.42935 -4.96823 0 -2 0
112 2 -6.94663 0.499417 6.67127 1 -1 0
17 2 -5.12369 2.57405 -6.7367 0 -1 1
19 2 -3.60333 1.70369 -6.43425 0 -1 1
18 2 -4.78293 1.6843 -5.21524 0 -1 1
16 1 -4.39863 2.31493 -5.97456 0 -1 1
214 2 -4.20717 2.33544 -2.07121 2 -1 1
215 2 -5.60008 3.42517 -1.8372 2 -1 1
211 1 -5.07067 2.58794 -1.45564 2 -1 1
213 2 -4.7734 2.74292 -0.44213 2 -1 1
199 2 -0.68722 3.74443 -3.40578 0 -1 1
196 1 -1.61073 3.6311 -2.86126 0 -1 1
200 2 -2.42379 4.03943 -3.467 0 -1 1
197 2 -1.83912 2.57655 -2.64707 0 -1 1
61 1 -0.437663 1.58525 -5.53279 1 0 0
65 2 -1.33894 1.84086 -4.92685 1 0 0
250 2 -1.4247 7.46887 -3.40984 1 -2 0
172 2 -6.25057 5.97806 -4.64282 1 -1 0
171 1 -5.71975 5.24542 -4.00867 1 -1 0
173 2 -4.63018 5.47026 -3.93687 1 -1 0
174 2 -6.16884 5.30171 -3.03745 1 -1 0
143 2 -1.88853 5.97888 -5.26702 1 -1 0
175 2 -5.90292 4.24706 -4.40627 1 -1 0
141 1 -1.0142 5.70229 -5.85161 1 -1 0
167 2 -7.72941 4.1432 0.150869 1 -1 0
145 2 -1.11506 4.75988 -6.41328 1 -1 0
168 2 -6.83477 5.32625 -0.852725 1 -1 0
198 2 -1.5419 4.19189 -1.94062 0 -1 1
142 2 -0.224157 5.64021 -5.10425 1 -1 0
20 2 -3.9868 3.24387 -5.56745 0 -1 1
2 2 -8.06131 2.57878 -3.83002 1 -1 0
144 2 -0.795872 6.47083 -6.6085 1 -1 0
122 2 -3.83182 5.62578 7.1271 1 -1 -1
265 2 -0.832716 -0.540259 -2.47382 1 -1 0
207 2 2.67486 6.20595 -4.44457 1 -1 0
113 2 8.66704 0.673631 -6.2081 0 -1 1
62 2 0.154296 0.930912 -4.90752 1 0 0
63 2 0.0755188 2.53856 -5.66077 1 0 0
101 1 7.66058 7.81758 -3.70425 0 -1 0
126 1 3.18417 0.0801379 -3.69737 1 -1 1
134 2 6.70807 8.31646 -0.56575 1 -1 0
129 2 4.08574 0.485024 -3.2282 1 -1 1
102 2 -8.30334 6.97083 -3.48713 1 -1 0
206 1 3.12045 7.17985 -4.23225 1 -1 0
209 2 4.06611 7.03936 -3.73189 1 -1 0
128 2 2.65139 0.859913 -4.22278 1 -1 1
208 2 2.48243 7.83078 -3.69535 1 -1 0
284 2 1.00317 5.45332 -2.69508 1 -1 -1
282 2 2.21299 4.28635 -3.2752 1 -1 -1
281 1 1.73153 4.69176 -2.37124 1 -1 -1
283 2 2.54805 5.22109 -1.8301 1 -1 -1
285 2 1.29012 3.93598 -1.7187 1 -1 -1
232 2 5.69763 1.68581 -5.34568 1 0 0
4 2 7.13445 2.34785 -2.81416 0 -1 0
5 2 -8.00223 1.5526 -2.37932 1 -1 0
1 1 8.22607 2.44109 -2.78697 0 -1 0
231 1 5.16395 1.85436 -6.27027 1 0 0
3 2 8.55139 3.2832 -2.17799 0 -1 0
84 2 5.66058 5.82864 -5.03756 0 -2 0
82 2 5.47135 4.08561 -4.53015 0 -2 0
83 2 7.06624 4.94291 -4.43461 0 -2 0
85 2 5.68392 5.26092 -3.28668 0 -2 0
81 1 5.9727 5.03892 -4.31761 0 -2 0
233 2 4.37521 2.58277 -6.13799 1 0 0
270 2 5.14112 6.41012 0.150964 1 -1 0
260 2 7.73309 0.352855 0.000865405 1 -2 0
234 2 5.87593 2.20614 -7.05349 1 0 0
204 2 1.97468 0.157917 -7.05359 1 0 1
267 2 6.16605 5.52642 -0.907206 1 -1 0
279 2 7.76394 6.48674 -7.06617 0 0 1
235 2 4.73152 0.930968 -6.60119 1 0 0
163 2 -3.58511 -3.30841 0.120728 1 -1 0
251 1 -6.55115 -7.9232 7.02527 2 -1 0
161 1 -2.89904 -2.50849 0.329522 1 -1 0
97 2 -1.12223 -7.70664 6.15318 1 -1 -1
100 2 -1.49317 -6.03744 5.83599 1 -1 -1
99 2 -2.85772 -7.15604 6.01602 1 -1 -1
98 2 -1.82334 -7.16623 4.59618 1 -1 -1
96 1 -1.84225 -7.01736 5.65161 1 -1 -1
272 2 -3.86599 -4.33209 3.96264 2 0 0
274 2 -5.28768 -3.4774 4.58549 2 0 0
271 1 -4.8937 -4.43746 4.32242 2 0 0
273 2 -5.08867 -5.10277 5.17735 2 0 0
275 2 -5.48685 -4.74102 3.45006 2 0 0
188 2 -8.25875 -0.79316 3.37366 1 -1 0
146 1 -0.0332561 -5.06481 2.26821 1 0 -1
148 2 -0.646601 -4.24876 1.89574 1 0 -1
165 2 -1.87849 -2.75228 -0.0761251 1 -1 0
186 1 -8.13822 -1.51908 4.16429 1 -1 0
190 2 -7.8241 -1.17978 5.1654 1 -1 0
26 1 -2.05962 -2.26206 5.28228 0 0 0
30 2 -3.06596 -2.05525 5.60834 0 0 0
28 2 -1.36803 -1.46614 5.56674 0 0 0
29 2 -1.96102 -2.43407 4.21351 0 0 0
255 2 -5.66642 7.94158 6.60704 2 -2 0
222 2 -2.75274 -7.558 0.83295 1 0 -1
27 2 -1.7426 -3.20857 5.70534 0 0 0
224 2 -3.38865 -7.69161 2.47249 1 0 -1
221 1 -2.58735 -7.27246 1.84548 1 0 -1
252 2 -7.30744 -7.82831 6.24235 2 -1 0
162 2 -2.88573 -2.31439 1.38392 1 -1 0
225 2 -1.60832 -7.6887 2.05851 1 0 -1
297 2 -5.18019 -1.48949 2.59734 1 -1 0
239 2 -6.38115 8.13571 4.00516 1 -1 0
296 1 -4.95773 -0.453204 2.85252 1 -1 0
147 2 0.185754 -5.71044 1.40044 1 0 -1
187 2 -7.47682 -2.32213 3.85043 1 -1 0
7 2 -7.89811 -5.27572 2.17525 1 0 0
223 2 -2.5768 -6.1988 1.97241 1 0 -1
299 2 -3.89472 -0.226724 2.77949 1 -1 0
300 2 -5.5032 0.16505 2.16141 1 -1 0
38 2 5.55375 -1.76023 -6.95562 0 -1 1
36 1 5.585 -2.37395 6.52852 0 -1 0
40 2 5.56394 -1.80004 5.62046 0 -1 0
133 2 8.3378 -7.96533 0.200699 1 0 0
150 2 0.94316 -4.65831 2.52007 1 0 -1
149 2 -0.509787 -5.6491 3.05188 1 0 -1
289 2 0.686595 -1.65872 4.16566 1 0 -1
25 2 2.74639 -2.93385 0.144843 0 -1 0
290 2 2.3542 -1.30739 3.75342 1 0 -1
189 2 7.52841 -1.95786 4.3666 0 -1 0
201 1 2.2564 -0.831911 6.98288 1 0 0
53 2 6.0822 -6.04673 7.04184 0 0 -1
309 2 1.62202 -4.86811 4.56713 1 0 -2
39 2 6.50748 -2.96409 6.58391 0 -1 0
307 2 1.77759 -3.38052 5.47789 1 0 -2
308 2 2.10048 -4.95499 6.22556 1 0 -2
8 2 -7.91879 -5.82767 3.83274 1 0 0
10 2 7.18697 -5.82525 2.94658 0 0 0
310 2 3.26412 -4.24571 5.00148 1 0 -2
9 2 7.97446 -4.29913 3.47467 0 0 0
6 1 8.15358 -5.30781 3.08615 0 0 0
67 2 3.81494 -7.311 1.53111 0 0 0
68 2 2.93546 -5.9156 2.16879 0 0 0
66 1 3.75953 -6.25723 1.54034 0 0 0
70 2 3.68937 -5.87692 0.513266 0 0 0
69 2 4.65493 -5.84523 1.98381 0 0 0
306 1 2.23764 -4.35384 5.3174 1 0 -2
159 2 5.78454 -3.41662 3.07655 0 0 0
158 2 5.44029 -1.68284 2.6809 0 0 0
156 1 5.44618 -2.73126 2.3073 0 0 0
157 2 4.42551 -3.03472 2.06758 0 0 0
160 2 6.1081 -2.78845 1.44616 0 0 0
135 2 7.13797 -6.63667 0.390118 1 0 0
203 2 1.39769 -1.41965 6.7576 1 0 0
286 1 1.31431 -1.21771 3.39945 1 0 -1
205 2 2.87981 -0.581522 6.16024 1 0 0
287 2 1.13753 -1.81399 2.51036 1 0 -1
288 2 1.04224 -0.193468 3.23978 1 0 -1
131 1 7.2612 -7.7082 0.314688 1 0 0
138 2 1.81163 -7.84749 5.93729 1 0 0
111 1 -7.72554 1.07195 7.14971 1 -1 0
166 1 -6.96239 4.93165 0.138023 1 -1 0
170 2 -6.00816 4.59297 0.516017 1 -1 0
298 2 -5.34112 -0.173626 3.81263 1 -1 0
114 2 -7.34209 2.08774 7.33953 1 -1 0
169 2 -7.22058 5.74976 0.778257 1 -1 0
237 2 -6.67485 -8.06344 2.23333 1 0 0
238 2 -6.51779 6.65772 2.96893 1 -1 0
236 1 -6.84737 7.67678 3.13337 1 -1 0
240 2 -7.93559 7.58437 3.30483 1 -1 0
220 2 -1.77048 1.8736 4.37088 1 -1 0
125 2 -4.51303 6.36066 5.64009 1 -1 -1
121 1 -4.04328 5.44453 6.07382 1 -1 -1
123 2 -3.15779 5.23072 5.51436 1 -1 -1
124 2 -4.65341 4.52324 5.94047 1 -1 -1
219 2 -2.6377 2.78122 5.54064 1 -1 0
216 1 -2.75861 2.0085 4.83651 1 -1 0
32 2 -0.866157 1.33395 0.490765 1 -1 0
35 2 -2.5739 1.06234 0.225184 1 -1 0
31 1 -1.88204 1.67034 0.789798 1 -1 0
34 2 -2.04645 2.71616 0.492595 1 -1 0
33 2 -2.03846 1.56014 1.88168 1 -1 0
193 2 -7.22491 4.09204 4.5355 1 -1 0
192 2 -5.92242 3.60661 3.55803 1 -1 0
191 1 -6.70685 3.19681 4.1816 1 -1 0
195 2 -6.2143 2.69564 5.00832 1 -1 0
194 2 -7.37067 2.53562 3.64753 1 -1 0
292 2 -1.65033 4.323 3.14133 1 -1 -1
295 2 -1.85562 5.11775 1.51036 1 -1 -1
293 2 -3.22057 5.13043 2.74149 1 -1 -1
291 1 -2.12719 5.18443 2.56549 1 -1 -1
218 2 -3.55157 2.26148 4.0868 1 -1 0
294 2 -1.78358 6.14662 2.91253 1 -1 -1
217 2 -2.99668 1.06471 5.32507 1 -1 0
280 2 8.07729 4.71853 7.11878 0 0 0
277 2 6.45397 5.39076 6.90838 0 0 0
257 2 8.2275 1.22662 1.47112 1 -2 0
137 2 2.75092 7.1051 6.51287 1 -1 0
136 1 1.94141 7.44155 5.80647 1 -1 0
139 2 2.27874 7.29324 4.77502 1 -1 0
278 2 7.71438 5.74829 5.69202 0 0 0
242 2 6.05032 7.69698 4.55905 1 -2 -1
256 1 7.42486 1.07288 0.763656 1 -2 0
259 2 7.24205 2.03044 0.227825 1 -2 0
115 2 7.97842 1.09031 6.54235 0 -1 0
258 2 6.4903 0.734513 1.22204 1 -2 0
132 2 6.80361 8.11845 1.2089 1 -1 0
319 2 1.51074 1.71951 1.43269 1 -1 0
317 2 2.88538 0.609143 1.07807 1 -1 0
140 2 1.03191 6.87038 6.01069 1 -1 0
268 2 4.64763 4.72674 -0.256794 1 -1 0
117 2 1.34219 6.33055 2.26577 1 -1 1
316 1 2.41517 1.56013 0.830008 1 -1 0
116 1 2.07575 5.89831 1.57521 1 -1 1
119 2 1.83465 6.19775 0.516666 1 -1 1
120 2 3.06857 6.30007 1.77876 1 -1 1
276 1 7.51311 5.58423 6.77406 0 0 0
243 2 5.99718 6.36378 3.43037 1 -2 -1
266 1 5.50784 5.43619 -0.0432579 1 -1 0
269 2 6.02467 5.13865 0.86673 1 -1 0
118 2 2.12594 4.79288 1.6556 1 -1 1
318 2 2.20421 1.67992 -0.231328 1 -1 0
320 2 3.12338 2.32942 1.11679 1 -1 0
241 1 5.39635 6.97838 4.10924 1 -2 -1
44 2 7.08126 3.64212 2.84582 0 0 0
244 2 4.88487 6.42895 4.90833 1 -2 -1
42 2 5.98013 3.53723 4.24916 0 0 0
43 2 5.42123 3.19163 2.55156 0 0 0
245 2 4.65591 7.53629 3.52609 1 -2 -1
45 2 6.44292 2.03197 3.37987 0 0 0
41 1 6.21927 3.07748 3.26755 0 0 0
78 2 3.30984 3.42065 3.79824 0 -1 0
79 2 2.02055 4.36754 4.54749 0 -1 0
80 2 3.59714 4.23229 5.31351 0 -1 0
77 2 2.50305 2.80894 5.24229 0 -1 0
76 1 2.85369 3.7063 4.73409 0 -1 0
ITEM: TIMESTEP
800
ITEM: NUMBER OF ATOMS
320
ITEM: BOX BOUNDS pp pp pp
-8.297 8.3174
-8.1455 8.1829
-7.2013 7.1735
ITEM: ATOMS id type x y z ix iy iz
46 1 -3.58332 -1.29371 -4.00114 0 0 0
48 2 -3.99286 -0.678384 -3.19882 0 0 0
314 2 0.021354 -6.23124 -5.2624 1 0 0
47 2 -2.48822 -1.35538 -3.90724 0 0 0
50 2 -3.98786 -2.27875 -3.88812 0 0 0
49 2 -3.86419 -0.944729 -4.98529 0 0 0
185 2 -1.02413 -3.30717 -6.29063 1 -1 1
151 1 -6.61258 -2.35066 -0.432055 1 -1 0
226 1 -4.91967 -7.67276 -1.39172 1 1 0
230 2 -5.88492 -7.3458 -1.85406 1 1 0
72 2 -3.34886 -4.51315 -7.15648 1 0 0
227 2 -4.13191 -7.06153 -1.85275 1 1 0
71 1 -3.99353 -4.08667 -6.35544 1 0 0
176 1 -2.02585 -5.12199 -2.23809 1 -1 0
152 2 -6.48414 -1.68267 -1.31367 1 -1 0
107 2 -3.21876 7.61505 -5.11716 0 -2 0
180 2 -2.7009 -4.47221 -2.76603 1 -1 0
178 2 -1.72183 -5.927 -2.90709 1 -1 0
13 2 -7.24376 -4.28001 -3.77927 1 -1 0
109 2 -4.05367 -7.21005 -5.78354 0 -1 0
229 2 -4.99609 -7.53831 -0.304125 1 1 0
153 2 -6.71395 -3.36606 -0.733845 1 -1 0
75 2 -3.72366 -4.53945 -5.39518 1 0 0
179 2 -2.47559 -5.50366 -1.33939 1 -1 0
12 2 -7.20672 -3.53536 -5.36049 1 -1 0
11 1 -7.84428 -4.08465 -4.68283 1 -1 0
154 2 -5.82778 -2.28079 0.365418 1 -1 0
177 2 -1.11062 -4.56416 -2.02666 1 -1 0
181 1 -0.240618 -2.92491 -5.60724 1 -1 1
108 2 -3.24544 -7.22739 -4.17582 0 -1 0
106 1 -3.82224 -7.81139 -4.87593 0 -1 0
15 2 -8.08199 -5.02093 -5.15718 1 -1 0
183 2 0.729856 -3.01848 -6.0942 1 -1 1
261 1 -0.0143638 -0.397406 -1.85115 1 -1 0
248 2 -2.27368 7.26173 -1.29545 1 -2 0
74 2 -5.02114 -4.25013 -6.7006 1 0 0
155 2 -7.55872 -2.09887 -0.0255964 1 -1 0
73 2 -3.80252 -3.01438 -6.30266 1 0 0
182 2 -0.301874 -1.86558 -5.30869 1 -1 1
104 2 8.25419 -7.54314 -3.61916 0 0 0
262 2 0.546215 0.523883 -1.82025 1 -1 0
253 2 -6.90204 -6.82285 6.90183 2 -1 0
164 2 -2.97007 -1.65267 0.020587 1 -1 0
311 1 0.555585 -6.81814 -6.01732 1 0 0
313 2 0.432552 -6.34551 -7.0141 1 0 0
312 2 0.141875 -7.82972 -6.10057 1 0 0
184 2 -0.0916356 -3.55836 -4.73096 1 -1 1
263 2 -0.15416 -0.774729 -2.88668 1 -1 0
14 2 7.8355 -3.6218 -4.4437 0 -1 0
315 2 1.60625 -6.86226 -5.82447 1 0 0
60 2 1.27693 -6.28619 -2.9727 0 0 0
86 1 6.66349 -1.27671 -3.42908 1 -1 0
95 2 4.55592 -3.94247 -4.93913 0 -1 0
91 1 3.47757 -3.81446 -5.00655 0 -1 0
92 2 2.99337 -4.02944 -4.02848 0 -1 0
93 2 3.04989 -4.54158 -5.70024 0 -1 0
94 2 3.24003 -2.78036 -5.26743 0 -1 0
305 2 6.87723 -5.63113 -1.97619 0 0 0
302 2 5.24422 -6.14623 -2.55159 0 0 0
24 2 2.78347 -1.809 -0.319904 0 -1 0
301 1 5.91163 -5.27419 -2.34678 0 0 0
303 2 6.06501 -4.72473 -3.28716 0 0 0
21 1 3.19765 -2.69166 -0.697944 0 -1 0
304 2 5.44729 -4.66391 -1.57381 0 0 0
58 2 2.60955 -5.71757 -1.99082 0 0 0
56 1 1.52956 -5.65172 -2.12021 0 0 0
59 2 1.00157 -6.04452 -1.23896 0 0 0
90 2 5.61616 -1.06549 -3.20256 1 -1 0
87 2 6.77618 -1.47653 -4.51328 1 -1 0
89 2 7.277 -0.393249 -3.24228 1 -1 0
130 2 3.81993 0.348876 -4.54527 1 -1 1
37 2 4.62244 -2.41454 6.08212 0 -1 0
88 2 7.01999 -2.15171 -2.8547 1 -1 0
52 2 5.23097 -7.17958 -5.39909 0 0 0
57 2 1.25898 -4.58663 -2.19965 0 0 0
103 2 6.62671 -8.03009 -3.26145 0 0 0
202 2 3.08796 -1.38327 -6.91052 1 0 1
22 2 3.01477 -2.76745 -1.72333 0 -1 0
55 2 4.64628 -5.93331 -6.63516 0 0 0
264 2 0.481955 -1.22778 -1.32961 1 -1 0
210 2 3.46168 8.01773 -4.91715 1 -1 0
127 2 2.77844 -0.650863 -3.45978 1 -1 1
23 2 4.27761 -2.73054 -0.524861 0 -1 0
54 2 5.09555 -7.61881 -7.09992 0 0 0
51 1 5.28415 -6.7771 -6.42713 0 0 0
254 2 -6.58721 -7.88399 -6.10838 2 -1 1
247 2 -2.17579 7.01105 -3.05862 1 -2 0
249 2 -1.10877 6.03547 -1.9526 1 -2 0
246 1 -1.6036 7.00155 -2.11667 1 -2 0
228 2 -4.70707 7.59572 -1.56081 1 0 0
105 2 7.37267 7.80736 -4.84038 0 -1 0
64 2 0.0615204 1.39775 -6.69792 1 0 0
212 2 -5.47337 1.38637 -0.989211 2 -1 1
110 2 -4.7516 -8.11125 -4.37305 0 -1 0
112 2 -6.78008 1.28315 6.99598 1 -1 0
17 2 -4.92959 2.79584 -7.00396 0 -1 1
19 2 -4.21782 1.41469 -6.04801 0 -1 1
18 2 -4.76078 2.83709 -5.22776 0 -1 1
16 1 -4.32577 2.50916 -6.14148 0 -1 1
214 2 -3.68704 1.82406 -1.11063 2 -1 1
215 2 -4.87616 2.90937 -1.78095 2 -1 1
211 1 -4.71832 2.2076 -0.968929 2 -1 1
213 2 -4.7771 2.71709 -0.0017279 2 -1 1
199 2 -1.32788 4.03912 -3.60791 0 -1 1
196 1 -1.88839 3.34026 -2.98999 0 -1 1
200 2 -2.96481 3.4625 -3.11109 0 -1 1
197 2 -1.66941 2.29812 -3.2564 0 -1 1
61 1 -0.503673 1.57111 -5.78961 1 0 0
65 2 -1.53582 1.26947 -6.0293 1 0 0
250 2 -0.857286 7.79157 -2.24865 1 -2 0
172 2 -5.52366 5.87414 -4.72446 1 -1 0
171 1 -5.79483 5.41391 -3.77695 1 -1 0
173 2 -4.84648 5.11489 -3.30303 1 -1 0
174 2 -6.32953 6.11532 -3.16206 1 -1 0
143 2 -1.31862 6.08554 -5.11987 1 -1 0
175 2 -6.3939 4.54159 -3.97397 1 -1 0
141 1 -0.734723 5.8895 -5.99744 1 -1 0
167 2 -7.45164 4.05767 0.215377 1 -1 0
145 2 -0.864034 4.83394 -6.22688 1 -1 0
168 2 -6.64317 5.62924 0.0435682 1 -1 0
198 2 -1.70009 3.51648 -1.92717 0 -1 1
142 2 0.285714 6.08628 -5.72566 1 -1 0
20 2 -3.37641 3.05854 -6.21753 0 -1 1
2 2 -7.97219 2.58822 -3.9221 1 -1 0
144 2 -1.05588 6.45602 -6.86721 1 -1 0
122 2 -4.73458 5.85961 6.76243 1 -1 -1
265 2 -0.988344 -0.256628 -1.41244 1 -1 0
207 2 3.76382 6.27517 -4.42183 1 -1 0
113 2 -7.09187 0.151441 -6.08283 1 -1 1
62 2 -0.0644383 1.05031 -4.96023 1 0 0
63 2 -0.447261 2.62142 -5.58022 1 0 0
101 1 7.53592 8.00019 -3.76314 0 -1 0
126 1 3.11191 0.355479 -3.72659 1 -1 1
134 2 6.57681 -7.57376 -0.511943 1 0 0