LAMMPS (14 May 2016)
# input script for topotools tutorial step 2a
units real
boundary p p p
atom_style full

read_data data.1_methyl_naphthalene
  orthogonal box = (-13.4569 -14.6313 -12.4476) to (13.25 14.1743 12.4476)
  1 by 1 by 1 MPI processor grid
  reading atoms ...
  1134 atoms
  scanning bonds ...
  3 = max bonds/atom
  scanning angles ...
  6 = max angles/atom
  scanning dihedrals ...
  12 = max dihedrals/atom
  reading bonds ...
  1188 bonds
  reading angles ...
  1944 angles
  reading dihedrals ...
  2700 dihedrals
  4 = max # of 1-2 neighbors
  7 = max # of 1-3 neighbors
  17 = max # of 1-4 neighbors
  18 = max # of special neighbors

kspace_style pppm 1.0e-6

# interaction styles
pair_style lj/cut/coul/long 12.0  20.0 6.0 6.0
ERROR: Illegal pair_style command (../pair_lj_cut_coul_long.cpp:600)
