ITEM: TIMESTEP
0
ITEM: NUMBER OF ATOMS
320
ITEM: BOX BOUNDS pp pp pp
-8.297 8.3174
-8.1455 8.1829
-7.2013 7.1735
ITEM: ATOMS id type x y z ix iy iz 
1 1 -5.27035 -6.22438 -6.10824 0 0 0 
2 2 -4.46626 -6.64057 -5.50381 0 0 0 
5 2 -5.97987 -5.79897 -5.43493 0 0 0 
6 1 -5.16496 -5.79491 -2.09382 0 0 0 
7 2 -4.77355 -5.5083 -3.07618 0 0 0 
8 2 -5.17852 -4.90818 -1.46184 0 0 0 
9 2 -6.19987 -6.19829 -2.18785 0 0 0 
10 2 -4.49862 -6.52322 -1.61002 0 0 0 
21 1 -4.47662 -2.0437 -5.03206 0 0 0 
22 2 -5.38216 -1.59071 -5.36515 0 0 0 
23 2 -4.57482 -3.11847 -5.15815 0 0 0 
24 2 -3.71093 -1.70146 -5.70576 0 0 0 
25 2 -4.34708 -1.80338 -3.97503 0 0 0 
26 1 -5.54107 -0.725278 -1.15669 0 0 0 
86 1 -1.74017 -7.55763 -0.951245 0 0 0 
106 1 -2.63776 -3.16065 -0.718219 0 0 0 
107 2 -3.69016 -3.30384 -1.02154 0 0 0 
110 2 -2.063 -4.04848 -1.02237 0 0 0 
4 2 -5.77964 -7.03309 -6.70455 0 0 0 
89 2 -1.20132 -6.5978 -1.01825 0 0 0 
249 2 -7.00086 -3.833 -1.16024 1 0 0 
246 1 -8.02759 -3.52144 -0.892905 1 0 0 
3 2 -4.98595 -5.45088 -6.77734 0 0 0 
81 1 -0.979922 -4.45541 -6.27902 0 0 0 
29 2 -5.6951 -1.02581 -0.127995 0 0 0 
83 2 -0.381773 -3.64933 -5.83877 0 0 0 
87 2 -1.83596 -8.02375 -1.90766 0 0 0 
28 2 -4.48018 -0.542335 -1.25142 0 0 0 
103 2 -1.78064 -0.827859 -4.35081 0 0 0 
82 2 -0.347691 -5.33211 -6.2745 0 0 0 
263 2 -7.65984 -3.35863 -6.79553 1 0 0 
90 2 -2.7068 -7.38795 -0.457889 0 0 0 
30 2 -5.81491 -1.46741 -1.86094 0 0 0 
108 2 -2.34513 -2.27436 -1.30335 0 0 0 
85 2 -1.90195 -4.63541 -5.63215 0 0 0 
189 2 -0.538099 -1.11914 -0.351841 0 0 0 
264 2 -8.18595 -4.07645 -5.26331 1 0 0 
310 2 -7.69473 -7.58439 -3.45377 1 1 0 
247 2 -7.99014 -2.82342 -0.0200003 1 0 0 
185 2 0.723417 -3.5743 -2.33286 0 0 0 
250 2 8.10446 -4.46068 -0.624906 0 0 0 
248 2 8.04182 -3.03356 -1.73973 0 0 0 
161 1 1.9349 -5.94801 -3.82791 0 0 0 
162 2 1.29208 -6.66943 -4.37749 0 0 0 
163 2 2.05016 -5.02991 -4.4053 0 0 0 
164 2 1.52438 -5.75801 -2.84778 0 0 0 
165 2 2.90341 -6.38364 -3.7318 0 0 0 
166 1 4.83685 -5.17344 -1.6681 0 0 0 
181 1 1.03968 -2.67051 -2.8782 0 0 0 
182 2 0.609049 -1.80591 -2.37669 0 0 0 
183 2 0.74099 -2.68054 -3.94263 0 0 0 
184 2 2.09509 -2.59405 -2.81638 0 0 0 
241 1 4.43198 -7.85759 -6.07793 0 0 0 
243 2 5.47979 -8.05352 -6.2407 0 0 0 
244 2 4.29903 -6.82729 -6.38238 0 0 0 
245 2 4.1816 -8.04104 -5.07873 0 0 0 
261 1 8.12194 -3.41895 -6.07524 0 0 0 
266 1 5.26495 -0.612141 -3.39 0 0 0 
267 2 5.83739 -1.46134 -3.00552 0 0 0 
268 2 4.43562 -0.422635 -2.75102 0 0 0 
270 2 4.94 -0.874443 -4.40934 0 0 0 
169 2 5.61073 -4.60513 -1.10789 0 0 0 
168 2 5.34723 -5.88253 -2.32277 0 0 0 
262 2 7.88726 -2.43135 -5.67208 0 0 0 
265 2 7.25987 -3.86582 -6.60131 0 0 0 
170 2 4.19678 -5.73103 -0.961304 0 0 0 
167 2 4.27024 -4.49115 -2.31974 0 0 0 
199 2 3.41613 -2.22606 -5.66623 0 0 1 
198 2 2.67962 -1.27405 -7.00584 0 0 1 
196 1 2.85791 -2.28836 -6.58477 0 0 1 
309 2 7.19278 -7.12659 -3.29655 0 1 0 
306 1 7.89358 -7.94229 -3.45812 0 1 0 
197 2 1.95905 -2.83358 -6.31804 0 0 1 
172 2 0.553569 -4.97926 -0.0378918 0 0 0 
194 2 4.12849 -1.70245 -0.493896 0 0 0 
88 2 -1.10023 8.16303 -0.312802 0 -1 0 
105 2 -2.91633 0.306067 -3.4971 0 0 0 
104 2 -1.23523 0.84089 -4.09368 0 0 0 
142 2 -2.85796 7.8857 -4.27471 0 0 0 
27 2 -6.11102 0.174728 -1.31579 0 0 0 
144 2 -1.99429 7.02132 -5.60112 0 0 0 
101 1 -2.1331 0.218202 -4.24954 0 0 0 
143 2 -3.77276 7.08466 -5.56316 0 0 0 
102 2 -2.6052 0.40783 -5.19265 0 0 0 
41 1 -4.29408 3.07207 -4.88103 0 0 0 
42 2 -4.65076 3.4801 -5.84401 0 0 0 
43 2 -4.6524 2.02582 -4.81479 0 0 0 
44 2 -3.18254 3.07742 -4.93183 0 0 0 
45 2 -4.67727 3.71851 -4.0825 0 0 0 
47 2 -7.65816 4.4408 -1.16742 0 0 0 
61 1 -6.88112 5.99342 -5.98849 0 0 0 
63 2 -7.36679 6.28752 -6.95723 0 0 0 
64 2 -6.78414 6.88553 -5.38654 0 0 0 
66 1 -5.1208 6.801 -1.83604 0 0 0 
67 2 -5.21481 6.04545 -1.08473 0 0 0 
68 2 -5.91211 7.52918 -1.78294 0 0 0 
69 2 -4.15263 7.28695 -1.65808 0 0 0 
70 2 -5.12498 6.22634 -2.78453 0 0 0 
121 1 -0.974541 2.57822 -6.87377 0 0 0 
126 1 -3.21208 2.68613 -1.06506 0 0 0 
141 1 -2.86722 7.05169 -4.95992 0 0 0 
145 2 -2.94731 6.10061 -4.39658 0 0 0 
146 1 -0.561736 5.62298 -2.13222 0 0 0 
147 2 -0.736252 6.41909 -2.81656 0 0 0 
150 2 -1.47334 5.5128 -1.51782 0 0 0 
129 2 -2.27999 2.57419 -1.5771 0 0 0 
62 2 -7.54021 5.27865 -5.48606 0 0 0 
125 2 -0.634084 3.55005 -6.53588 0 0 0 
130 2 -3.56057 3.73195 -1.13278 0 0 0 
127 2 -4.00723 2.07993 -1.43571 0 0 0 
65 2 -5.85878 5.57165 -6.15743 0 0 0 
128 2 -3.02556 2.43919 -0.0147963 0 0 0 
122 2 -0.579321 1.79324 -6.2212 0 0 0 
148 2 -0.284124 4.684 -2.67589 0 0 0 
124 2 -2.02324 2.57254 -6.96485 0 0 0 
284 2 -7.19012 1.81445 -4.27495 1 0 0 
281 1 -8.27473 1.7009 -4.06774 1 0 0 
308 2 7.6742 7.97372 -4.44894 0 0 0 
149 2 0.320657 5.89127 -1.51991 0 0 0 
285 2 8.17162 0.623222 -3.98961 0 0 0 
50 2 7.9772 4.91378 -2.60436 -1 0 0 
269 2 5.86263 0.275801 -3.36587 0 0 0 
299 2 6.30736 0.402922 -6.38703 0 0 1 
230 2 3.54835 6.22176 -2.65036 0 0 0 
46 1 8.01979 4.89776 -1.51993 -1 0 0 
229 2 3.45864 7.29559 -1.23347 0 0 0 
283 2 7.80267 2.05351 -4.94437 0 0 0 
49 2 7.93593 5.92477 -1.17402 -1 0 0 
307 2 7.70911 7.60199 -2.67159 0 0 0 
48 2 7.20727 4.30674 -1.06334 -1 0 0 
282 2 8.01586 2.23382 -3.14699 0 0 0 
272 2 6.11803 0.302591 -0.79422 0 0 0 
201 1 1.83534 0.915232 -4.41813 0 0 0 
202 2 1.29707 1.69028 -3.88599 0 0 0 
203 2 1.15668 0.178045 -4.8806 0 0 0 
204 2 2.32339 1.42494 -5.27363 0 0 0 
205 2 2.55615 0.407474 -3.77086 0 0 0 
206 1 1.20842 2.31354 -0.755366 0 0 0 
207 2 0.66528 1.51225 -1.29764 0 0 0 
209 2 2.15471 1.9226 -0.483627 0 0 0 
210 2 1.35474 3.18799 -1.40877 0 0 0 
221 1 1.04781 7.03326 -6.55796 0 0 0 
222 2 1.44762 6.45559 -5.71451 0 0 0 
224 2 0.958043 8.08361 -6.25062 0 0 0 
226 1 4.13607 6.75806 -1.88073 0 0 0 
227 2 4.81896 7.45686 -2.36097 0 0 0 
228 2 4.62595 6.01595 -1.27719 0 0 0 
286 1 4.55694 3.02092 -3.14144 0 0 0 
290 2 4.71296 2.56871 -4.12213 0 0 0 
305 2 6.9605 4.23438 -6.10375 0 0 0 
288 2 4.29628 4.0865 -3.2191 0 0 0 
289 2 5.45692 2.92935 -2.57143 0 0 0 
287 2 3.70963 2.56199 -2.61648 0 0 0 
301 1 6.18874 4.9605 -6.40776 0 0 0 
271 1 7.15561 0.378901 -0.516574 0 0 0 
304 2 6.44833 5.90943 -5.96143 0 0 0 
275 2 7.68768 0.0794163 -1.44864 0 0 0 
242 2 3.9044 7.83617 -6.78359 0 -1 0 
223 2 0.132772 6.50376 -6.86298 0 0 0 
302 2 5.22668 4.6263 -6.0211 0 0 0 
273 2 7.40434 1.43116 -0.328257 0 0 0 
100 2 -3.78481 -3.74595 6.40478 0 0 0 
84 2 -1.18734 -4.22615 7.05256 0 0 -1 
109 2 -2.54279 -3.01315 0.370967 0 0 0 
117 2 -0.275101 -2.45546 5.57647 0 0 0 
119 2 -1.30983 -1.84377 6.95118 0 0 0 
118 2 -1.87432 -1.7448 5.26383 0 0 0 
11 1 -5.82396 -4.02701 1.76362 0 0 0 
12 2 -4.98027 -3.67151 2.40182 0 0 0 
13 2 -6.62479 -4.52861 2.35926 0 0 0 
14 2 -6.22735 -3.14331 1.30312 0 0 0 
15 2 -5.3802 -4.69336 1.00026 0 0 0 
91 1 -2.44454 -5.1977 2.51906 0 0 0 
92 2 -1.95388 -4.23573 2.57528 0 0 0 
93 2 -3.174 -5.32582 1.7265 0 0 0 
94 2 -1.62094 -5.93184 2.47098 0 0 0 
95 2 -2.99224 -5.41603 3.44087 0 0 0 
96 1 -4.36625 -3.59652 5.49928 0 0 0 
97 2 -3.77976 -3.74147 4.61154 0 0 0 
98 2 -4.76383 -2.57616 5.51123 0 0 0 
99 2 -5.23056 -4.25476 5.52747 0 0 0 
111 1 -3.4354 -0.978873 2.65379 0 0 0 
113 2 -4.0227 -0.949658 3.553 0 0 0 
114 2 -4.1298 -0.98443 1.80048 0 0 0 
116 1 -0.974509 -1.67414 5.92674 0 0 0 
112 2 -2.79189 -0.0768696 2.58963 0 0 0 
115 2 -2.7372 -1.83979 2.61517 0 0 0 
31 1 -7.27641 -0.0833751 3.2033 0 0 0 
16 1 -8.1052 -4.883 4.77169 0 0 0 
18 2 -7.60983 -5.48136 5.51414 0 0 0 
187 2 -0.59991 -1.24916 1.40642 0 0 0 
313 2 -6.7581 -7.92944 1.08069 1 1 0 
186 1 -0.477843 -0.554447 0.578412 0 0 0 
120 2 -0.50195 -0.712752 5.87554 0 0 0 
17 2 -7.35243 -4.18191 4.41014 0 0 0 
315 2 -8.27436 -7.84035 2.02013 1 1 0 
34 2 -7.14252 -1.15788 3.14225 0 0 0 
158 2 -1.3841 -6.96083 6.30528 0 1 0 
156 1 -1.8821 -7.80474 5.83675 0 1 0 
160 2 -2.34068 -7.48632 4.87362 0 1 0 
78 2 -4.88488 -8.01556 5.51499 0 1 0 
80 2 -6.19213 -7.62641 4.40035 0 1 0 
195 2 2.52394 -2.27039 0.162683 0 0 0 
192 2 3.9812 -2.14949 1.21384 0 0 0 
19 2 7.68229 -4.33017 5.18749 -1 0 0 
175 2 1.57235 -6.05736 0.963838 0 0 0 
274 2 7.37969 -0.30666 0.310531 0 0 0 
257 2 7.90934 -8.12961 4.51075 0 0 0 
20 2 8.13623 -5.56622 3.96418 -1 0 0 
200 2 3.40819 -2.84995 7.04122 0 0 0 
298 2 5.28702 -0.613456 6.96778 0 0 0 
173 2 2.08687 -4.37704 0.619456 0 0 0 
260 2 8.02959 -7.65276 6.23825 0 0 0 
171 1 1.23569 -5.02152 0.806702 0 0 0 
179 2 1.89229 -4.35061 4.61392 0 0 0 
193 2 3.23123 -0.675836 0.648698 0 0 0 
178 2 1.44393 -4.53505 6.31193 0 0 0 
177 2 2.56067 -5.72736 5.45734 0 0 0 
174 2 0.777666 -4.66206 1.68594 0 0 0 
176 1 1.69378 -5.0563 5.38865 0 0 0 
180 2 0.769336 -5.58412 5.12813 0 0 0 
191 1 3.45532 -1.68526 0.363072 0 0 0 
251 1 5.16438 -6.22679 2.503 0 0 0 
252 2 5.99641 -5.50961 2.4739 0 0 0 
253 2 4.45309 -5.96988 1.7168 0 0 0 
254 2 5.58484 -7.22261 2.292 0 0 0 
255 2 4.75939 -6.17775 3.52009 0 0 0 
276 1 6.38142 -2.14489 3.08087 0 0 0 
277 2 6.0868 -1.98192 2.0306 0 0 0 
278 2 5.83011 -2.99418 3.47043 0 0 0 
279 2 7.44957 -2.31056 3.10414 0 0 0 
280 2 6.10214 -1.31466 3.76683 0 0 0 
256 1 7.33085 -7.87769 5.40391 0 0 0 
258 2 6.67224 -7.01586 5.24859 0 0 0 
211 1 2.00822 -0.304224 3.76398 0 0 0 
215 2 1.05326 -0.334361 3.28315 0 0 0 
238 2 2.02458 -7.41725 3.43477 0 1 0 
213 2 2.21057 -1.27404 4.28967 0 0 0 
237 2 3.13282 -8.11611 4.68112 0 1 0 
188 2 0.453291 -0.0223807 0.621937 0 0 0 
212 2 2.78053 -0.0309564 3.02176 0 0 0 
190 2 -1.33819 0.136693 0.604275 0 0 0 
32 2 -7.88751 0.1994 4.07011 0 0 0 
79 2 -4.84518 7.55723 3.93844 0 0 0 
38 2 -3.33509 0.770826 6.45662 0 0 0 
157 2 -2.68797 8.17791 6.45964 0 0 0 
123 2 -0.560063 2.39509 6.51623 0 0 -1 
311 1 -7.5053 7.83102 1.61803 1 0 0 
35 2 -7.71043 0.251173 2.31273 0 0 0 
39 2 -3.65355 1.62661 4.98861 0 0 0 
314 2 -7.98715 7.08292 0.964628 1 0 0 
33 2 -6.28643 0.367671 3.1915 0 0 0 
312 2 -6.97871 7.3959 2.45357 1 0 0 
40 2 -4.78084 1.91905 6.33379 0 0 0 
77 2 -6.04296 7.06676 5.20819 0 0 0 
76 1 -5.5471 7.88916 4.72191 0 0 0 
36 1 -4.14006 1.17593 5.82943 0 0 0 
74 2 -3.25373 6.16954 0.435768 0 0 0 
37 2 -4.77867 0.357855 5.50567 0 0 0 
75 2 -4.62036 6.67875 1.43429 0 0 0 
72 2 -3.42652 5.33532 1.88367 0 0 0 
51 1 -6.74328 4.50282 2.56661 0 0 0 
52 2 -7.80176 4.46847 2.31416 0 0 0 
53 2 -6.14017 4.85868 1.73354 0 0 0 
54 2 -6.52781 5.21734 3.34781 0 0 0 
55 2 -6.4458 3.49628 2.88846 0 0 0 
56 1 -8.11046 3.14736 5.98619 0 0 0 
60 2 -8.09995 3.68692 6.93352 0 0 0 
71 1 -3.59617 6.30304 1.45837 0 0 0 
73 2 -2.96039 7.0149 1.96532 0 0 0 
131 1 -0.83808 1.85655 3.48015 0 0 0 
135 2 -1.42359 2.75376 3.3235 0 0 0 
136 1 -3.21338 4.99375 5.32731 0 0 0 
137 2 -2.46958 4.42449 5.87266 0 0 0 
138 2 -2.72299 5.48992 4.49228 0 0 0 
139 2 -3.95705 4.31885 4.91507 0 0 0 
140 2 -3.73577 5.68948 6.02361 0 0 0 
154 2 -0.357648 6.13219 2.82693 0 0 0 
134 2 -0.746843 1.42029 2.49316 0 0 0 
57 2 -7.24592 2.4758 5.90569 0 0 0 
159 2 -1.18129 7.71914 5.6777 0 0 0 
132 2 -1.29669 1.17936 4.2254 0 0 0 
153 2 -0.502687 5.6641 1.07786 0 0 0 
58 2 -8.22091 3.86479 5.16151 0 0 0 
208 2 0.6608 2.67397 0.108057 0 0 0 
303 2 6.13102 5.04206 6.8693 0 0 -1 
225 2 1.76722 6.96033 6.9949 0 0 -1 
234 2 3.09308 4.53341 0.0182898 0 0 0 
297 2 6.60434 0.41264 6.32317 0 0 0 
133 2 0.159986 2.15273 3.80188 0 0 0 
214 2 2.03189 0.381434 4.57978 0 0 0 
296 1 5.79066 0.350321 7.02846 0 0 0 
155 2 0.29327 7.20484 1.47516 0 0 0 
59 2 7.6033 2.50393 6.01493 -1 0 0 
300 2 5.10264 1.17948 6.94222 0 0 0 
259 2 6.74417 7.59409 5.6296 0 -1 0 
151 1 0.142691 6.16463 1.81477 0 0 0 
152 2 1.0518 5.6089 1.8362 0 0 0 
317 2 6.01525 5.3876 2.01457 0 0 0 
320 2 7.05465 5.69385 3.43563 0 0 0 
240 2 1.42445 7.58107 4.39681 0 0 0 
316 1 6.13134 5.97331 2.92205 0 0 0 
239 2 2.61624 7.2691 3.22332 0 0 0 
318 2 6.20125 7.03762 2.62964 0 0 0 
216 1 2.49904 4.38624 5.28581 0 0 0 
217 2 1.86449 4.62507 4.46678 0 0 0 
218 2 1.91132 4.37207 6.20999 0 0 0 
219 2 2.99692 3.42802 5.08897 0 0 0 
220 2 3.26923 5.14314 5.43596 0 0 0 
231 1 3.59096 4.41983 0.984355 0 0 0 
232 2 3.121 3.63322 1.55869 0 0 0 
233 2 4.60506 4.09003 0.775776 0 0 0 
235 2 3.59489 5.3141 1.56386 0 0 0 
236 1 2.30737 8.00044 3.95987 0 0 0 
291 1 6.01548 2.05934 2.9626 0 0 0 
292 2 6.51869 2.88749 2.43475 0 0 0 
293 2 5.19523 1.70528 2.29787 0 0 0 
294 2 6.76815 1.31721 3.16715 0 0 0 
295 2 5.55306 2.43955 3.91346 0 0 0 
319 2 5.23641 5.82401 3.58248 0 0 0 
ITEM: TIMESTEP
400
ITEM: NUMBER OF ATOMS
320
ITEM: BOX BOUNDS pp pp pp
-8.297 8.3174
-8.1455 8.1829
-7.2013 7.1735
ITEM: ATOMS id type x y z ix iy iz 
1 1 -5.59949 -6.16142 -6.10107 0 0 0 
2 2 -5.27604 -7.21328 -6.01465 0 0 0 
5 2 -5.98131 -5.8464 -5.14494 0 0 0 
6 1 -5.39517 -5.98243 -2.17631 0 0 0 
7 2 -4.74263 -6.75145 -2.55541 0 0 0 
8 2 -5.11995 -4.99811 -2.50152 0 0 0 
9 2 -6.38102 -6.18339 -2.5995 0 0 0 
10 2 -5.51818 -6.08655 -1.10353 0 0 0 
21 1 -4.52731 -2.21433 -5.32236 0 0 0 
22 2 -5.49412 -1.72948 -5.49382 0 0 0 
23 2 -4.69426 -3.30498 -5.27232 0 0 0 
24 2 -3.80937 -1.99706 -6.11515 0 0 0 
25 2 -4.07731 -1.9927 -4.32846 0 0 0 
26 1 -5.44387 -0.95062 -1.49294 0 0 0 
86 1 -1.60764 -7.477 -0.880196 0 0 0 
106 1 -2.70188 -3.31889 -0.629835 0 0 0 
107 2 -3.78641 -3.34227 -0.658786 0 0 0 
110 2 -2.33654 -4.24923 -1.01821 0 0 0 
4 2 -6.45758 -6.06974 -6.84293 0 0 0 
89 2 -1.01561 -6.54021 -0.817344 0 0 0 
249 2 -7.82557 -2.94833 -2.10293 1 0 0 
246 1 8.22225 -3.54332 -1.39807 0 0 0 
3 2 -4.79238 -5.52105 -6.39126 0 0 0 
81 1 -1.21953 -4.73187 -6.10846 0 0 0 
29 2 -6.00028 -1.30053 -0.591342 0 0 0 
83 2 -0.691046 -3.83427 -5.8184 0 0 0 
87 2 -2.0153 -7.53428 -1.86933 0 0 0 
28 2 -4.40292 -0.685371 -1.20477 0 0 0 
103 2 -1.84038 -0.169852 -3.66112 0 0 0 
82 2 -0.937864 -5.49448 -5.4213 0 0 0 
263 2 -7.59927 -3.67071 -6.60818 1 0 0 
90 2 -2.41227 -7.42287 -0.140234 0 0 0 
30 2 -5.52372 -1.73947 -2.22687 0 0 0 
108 2 -2.29953 -2.5119 -1.2104 0 0 0 
85 2 -2.31908 -4.56233 -6.01627 0 0 0 
189 2 0.190039 -0.498883 -0.523252 0 0 0 
264 2 8.17259 -4.0199 -5.11173 0 0 0 
310 2 -8.00286 -7.93108 -4.38317 1 1 0 
247 2 -8.09 -3.25157 -0.398546 1 0 0 
185 2 0.937518 -2.83143 -1.94077 0 0 0 
250 2 -8.21882 -4.56534 -1.55258 1 0 0 
248 2 7.16237 -3.3985 -1.56555 0 0 0 
161 1 1.82801 -5.91782 -3.89417 0 0 0 
162 2 1.06746 -6.67186 -4.17313 0 0 0 
163 2 1.6514 -4.99032 -4.45345 0 0 0 
164 2 1.77207 -5.67976 -2.83868 0 0 0 
165 2 2.82287 -6.2314 -4.14718 0 0 0 
166 1 4.54641 -5.08423 -1.52154 0 0 0 
181 1 1.0071 -2.30297 -2.90525 0 0 0 
182 2 0.441419 -1.36472 -2.85879 0 0 0 
183 2 0.5904 -2.92504 -3.72168 0 0 0 
184 2 2.02319 -2.10717 -3.11561 0 0 0 
241 1 4.57187 -7.99141 -5.95414 0 0 0 
243 2 5.46737 7.91368 -6.46994 0 -1 0 
244 2 4.5856 -6.87661 -5.90831 0 0 0 
245 2 4.61691 8.06291 -4.91371 0 -1 0 
261 1 8.16124 -3.39765 -5.99399 0 0 0 
266 1 5.27411 -0.928526 -3.3512 0 0 0 
267 2 5.6711 -1.93494 -3.15576 0 0 0 
268 2 4.39369 -0.782724 -2.7428 0 0 0 
270 2 4.95381 -0.923734 -4.42081 0 0 0 
169 2 4.7863 -4.31944 -2.26427 0 0 0 
168 2 4.26869 -5.9899 -2.01885 0 0 0 
262 2 8.28105 -2.38557 -5.63021 0 0 0 
265 2 7.2451 -3.45224 -6.56206 0 0 0 
170 2 5.39646 -5.22096 -0.876283 0 0 0 
167 2 3.68115 -4.7993 -0.948337 0 0 0 
199 2 2.61575 -2.02256 -5.44158 0 0 1 
198 2 2.88644 -1.20772 -7.01122 0 0 1 
196 1 3.02739 -2.13907 -6.42761 0 0 1 
309 2 7.30572 -7.04142 -3.71625 0 1 0 
306 1 7.81114 -7.98162 -3.68133 0 1 0 
197 2 2.55599 -2.97614 -6.91869 0 0 1 
172 2 1.08248 -4.53604 0.492331 0 0 0 
194 2 4.38287 -2.10554 -0.355444 0 0 0 
88 2 -0.975378 7.98719 -0.673956 0 -1 0 
105 2 -3.3911 0.798769 -3.55652 0 0 0 
104 2 -1.86383 1.59968 -3.7927 0 0 0 
142 2 -2.99468 7.71595 -4.51854 0 0 0 
27 2 -5.98951 -0.0806257 -1.91083 0 0 0 
144 2 -1.97638 6.98093 -5.73606 0 0 0 
101 1 -2.41603 0.7062 -4.02498 0 0 0 
143 2 -3.62732 6.58374 -5.70459 0 0 0 
102 2 -2.53741 0.639434 -5.08509 0 0 0 
41 1 -4.2237 3.73509 -4.93378 0 0 0 
42 2 -3.63631 4.27674 -5.6598 0 0 0 
43 2 -4.46892 2.7482 -5.29618 0 0 0 
44 2 -3.66069 3.61452 -4.0128 0 0 0 
45 2 -5.13335 4.25137 -4.82213 0 0 0 
47 2 -7.74232 4.33534 -1.32522 0 0 0 
61 1 -6.66469 6.0397 -6.02881 0 0 0 
63 2 -7.4896 6.62002 -6.45026 0 0 0 
64 2 -6.22715 6.54178 -5.20697 0 0 0 
66 1 -5.18648 6.56351 -2.20553 0 0 0 
67 2 -5.35827 5.63822 -1.67435 0 0 0 
68 2 -6.10292 7.13492 -2.13866 0 0 0 
69 2 -4.32485 7.12779 -1.79624 0 0 0 
70 2 -5.03411 6.4148 -3.29476 0 0 0 
121 1 -0.966339 2.74267 -6.8582 0 0 0 
126 1 -3.27004 2.62072 -0.929453 0 0 0 
141 1 -2.78783 6.7965 -5.03947 0 0 0 
145 2 -2.54721 5.98268 -4.31951 0 0 0 
146 1 -0.280964 5.53151 -2.3762 0 0 0 
147 2 -0.0796891 6.23391 -3.12853 0 0 0 
150 2 -1.26501 5.75383 -1.97004 0 0 0 
129 2 -2.4699 2.5831 -1.66815 0 0 0 
62 2 -6.9878 5.06961 -5.73109 0 0 0 
125 2 -0.389768 3.39253 -6.16967 0 0 0 
130 2 -3.36374 3.70574 -0.668632 0 0 0 
127 2 -4.16866 2.28312 -1.4317 0 0 0 
65 2 -5.95608 5.86619 -6.84569 0 0 0 
128 2 -2.98652 2.02928 -0.0366712 0 0 0 
122 2 -0.704901 1.66376 -6.71854 0 0 0 
148 2 -0.305064 4.56089 -2.88489 0 0 0 
124 2 -1.99985 2.8802 -6.62332 0 0 0 
284 2 -7.3925 1.94974 -3.38212 1 0 0 
281 1 -7.88194 1.75215 -4.34402 1 0 0 
308 2 7.17893 7.51838 -3.98364 0 0 0 
149 2 0.484656 5.52333 -1.59966 0 0 0 
285 2 -8.09416 0.705173 -4.48062 1 0 0 
50 2 8.42054 5.51748 -2.59321 -1 0 0 
269 2 6.01126 -0.152136 -3.16868 0 0 0 
299 2 6.0767 -0.47242 -6.71198 0 0 1 
230 2 4.21279 6.83574 -2.97559 0 0 0 
46 1 8.14108 5.07549 -1.64902 -1 0 0 
229 2 3.5433 6.78218 -1.27632 0 0 0 
283 2 -7.29449 2.17924 -5.12843 1 0 0 
49 2 8.0079 5.80401 -0.856017 -1 0 0 
307 2 8.22354 8.13335 -2.6741 0 0 0 
48 2 7.2211 4.5208 -1.84344 -1 0 0 
282 2 7.76602 2.22964 -4.3159 0 0 0 
272 2 6.1706 0.787101 -0.465258 0 0 0 
201 1 1.49122 0.824491 -4.33715 0 0 0 
202 2 1.09458 1.79933 -4.12198 0 0 0 
203 2 0.735565 0.149193 -4.73044 0 0 0 
204 2 2.34624 0.90567 -5.0112 0 0 0 
205 2 1.81659 0.409684 -3.41136 0 0 0 
206 1 1.34676 2.24361 -0.959951 0 0 0 
207 2 0.411061 1.8792 -1.44347 0 0 0 
209 2 1.99285 1.40753 -0.81062 0 0 0 
210 2 1.85819 3.10014 -1.44722 0 0 0 
221 1 0.877916 6.43397 -6.67862 0 0 0 
222 2 1.68355 6.43228 -5.94597 0 0 0 
224 2 0.371177 7.38399 -6.54288 0 0 0 
226 1 4.43917 6.87185 -1.87506 0 0 0 
227 2 4.89544 7.82221 -1.66139 0 0 0 
228 2 5.09679 6.05733 -1.60489 0 0 0 
286 1 4.85033 2.67193 -2.841 0 0 0 
290 2 5.02921 2.13483 -3.78815 0 0 0 
305 2 6.03001 4.03249 -5.89797 0 0 0 
288 2 5.01021 3.74922 -3.02214 0 0 0 
289 2 5.52766 2.33466 -2.09059 0 0 0 
287 2 3.82314 2.46581 -2.51119 0 0 0 
301 1 6.15278 5.00216 -6.38655 0 0 0 
271 1 7.16186 0.41421 -0.338475 0 0 0 
304 2 7.11783 5.38681 -6.11793 0 0 0 
275 2 7.33731 -0.400173 -1.0579 0 0 0 
242 2 3.64207 8.01344 -6.49936 0 -1 0 
223 2 0.14953 5.64594 -6.51999 0 0 0 
302 2 5.34861 5.6181 -6.03722 0 0 0 
273 2 7.95437 1.15097 -0.470874 0 0 0 
100 2 -4.01372 -3.46824 6.50822 0 0 0 
84 2 -1.02309 -5.0879 -7.09298 0 0 0 
109 2 -2.36763 -3.29607 0.388432 0 0 0 
117 2 -0.946119 -2.75442 6.16844 0 0 0 
119 2 -0.605993 -1.14122 6.89572 0 0 0 
118 2 -2.15473 -1.43212 6.02673 0 0 0 
11 1 -5.69843 -3.76781 1.95572 0 0 0 
12 2 -4.72605 -4.10573 2.32466 0 0 0 
13 2 -6.26026 -4.64712 1.6559 0 0 0 
14 2 -6.27347 -3.26054 2.66562 0 0 0 
15 2 -5.55798 -3.14787 1.09042 0 0 0 
91 1 -1.8549 -5.51149 2.3555 0 0 0 
92 2 -1.76176 -4.47976 2.67511 0 0 0 
93 2 -2.86349 -5.66865 1.98218 0 0 0 
94 2 -1.11503 -5.72115 1.56356 0 0 0 
95 2 -1.67398 -6.06918 3.2792 0 0 0 
96 1 -4.48868 -3.43878 5.52903 0 0 0 
97 2 -3.67012 -3.34109 4.84226 0 0 0 
98 2 -5.16135 -2.57819 5.38687 0 0 0 
99 2 -5.05106 -4.36572 5.35234 0 0 0 
111 1 -3.33619 -1.21035 2.59286 0 0 0 
113 2 -4.03782 -1.51861 3.31967 0 0 0 
114 2 -3.60824 -1.67986 1.65546 0 0 0 
116 1 -1.0739 -1.66193 6.08618 0 0 0 
112 2 -3.42959 -0.126537 2.43292 0 0 0 
115 2 -2.32579 -1.51241 2.86614 0 0 0 
31 1 -7.17259 0.0978086 3.014 0 0 0 
16 1 -8.0187 -4.75804 4.93983 0 0 0 
18 2 -7.60381 -5.49907 5.58233 0 0 0 
187 2 -0.041448 -1.77517 0.701364 0 0 0 
313 2 -6.62208 8.02492 1.72644 1 0 0 
186 1 -0.0804294 -0.70141 0.514871 0 0 0 
120 2 -0.65155 -1.30227 5.18553 0 0 0 
17 2 -7.84852 -3.75038 5.31512 0 0 0 
315 2 -7.84737 -7.00564 1.75319 1 1 0 
34 2 -7.53432 -0.859094 2.58292 0 0 0 
158 2 -1.77621 -6.76869 5.86881 0 1 0 
156 1 -2.04011 -7.82735 5.83707 0 1 0 
160 2 -2.49768 -8.04474 4.83526 0 1 0 
78 2 -5.12176 -7.4575 5.39381 0 1 0 
80 2 -5.86483 -7.91158 3.93014 0 1 0 
195 2 2.81239 -1.29196 -0.467707 0 0 0 
192 2 3.42647 -1.75986 1.13012 0 0 0 
19 2 7.53228 -4.97488 4.86014 -1 0 0 
175 2 1.30602 -5.84977 1.70511 0 0 0 
274 2 7.27499 -0.0221694 0.644169 0 0 0 
257 2 7.66281 -7.73043 4.96961 0 0 0 
20 2 -7.5175 -4.8652 3.9448 0 0 0 
200 2 4.08768 -2.33151 -6.47484 0 0 1 
298 2 4.85367 0.463277 6.72889 0 0 0 
173 2 2.7254 -4.82198 1.14611 0 0 0 
260 2 8.10358 8.02498 6.57625 0 -1 0 
171 1 1.64489 -4.83119 1.39434 0 0 0 
179 2 1.78384 -5.39118 4.42476 0 0 0 
193 2 4.25431 -0.496434 0.203498 0 0 0 
178 2 1.29208 -4.63747 5.90567 0 0 0 
177 2 2.44577 -5.98619 5.89642 0 0 0 
174 2 1.39623 -4.14332 2.17305 0 0 0 
176 1 1.53107 -5.59951 5.44087 0 0 0 
180 2 0.651578 -6.27723 5.50552 0 0 0 
191 1 3.72484 -1.40871 0.140821 0 0 0 
251 1 5.29452 -6.37037 2.22189 0 0 0 
252 2 5.89701 -5.48508 2.11123 0 0 0 
253 2 4.37837 -6.19512 2.76499 0 0 0 
254 2 5.00167 -6.84367 1.28346 0 0 0 
255 2 5.88231 -7.06556 2.79966 0 0 0 
276 1 6.24562 -2.32827 3.35068 0 0 0 
277 2 5.53416 -2.78419 2.66879 0 0 0 
278 2 5.96113 -2.5312 4.3738 0 0 0 
279 2 7.20651 -2.74903 3.13191 0 0 0 
280 2 6.23451 -1.24585 3.18353 0 0 0 
256 1 7.24832 -8.04763 5.92289 0 0 0 
258 2 6.7008 -7.21892 6.37641 0 0 0 
211 1 1.97637 -0.912037 3.52397 0 0 0 
215 2 0.930641 -1.09056 3.37651 0 0 0 
238 2 2.15985 -7.56211 3.37012 0 1 0 
213 2 2.55154 -1.86326 3.4113 0 0 0 
237 2 2.70597 8.12742 4.88552 0 0 0 
188 2 0.626532 -0.217013 1.15433 0 0 0 
212 2 2.33271 -0.222602 2.73792 0 0 0 
190 2 -1.11002 -0.331386 0.702191 0 0 0 
32 2 -7.87163 0.393781 3.82353 0 0 0 
79 2 -4.76521 7.26092 4.61148 0 0 0 
38 2 -3.25236 0.650898 6.34119 0 0 0 
157 2 -2.80458 8.27146 6.56007 0 0 0 
123 2 -0.765096 3.04458 6.47517 0 0 -1 
311 1 -7.65244 8.28159 1.48898 1 0 0 
35 2 -7.17592 0.891965 2.30567 0 0 0 
39 2 -4.22548 1.4716 5.10567 0 0 0 
314 2 -7.90733 8.1457 0.425908 1 0 0 
33 2 -6.11789 -0.0364304 3.33448 0 0 0 
312 2 -8.2721 7.59082 2.04782 1 0 0 
40 2 -4.65337 1.5957 6.80931 0 0 0 
77 2 -6.39005 7.528 5.29292 0 0 0 
76 1 -5.53409 7.99231 4.85788 0 0 0 
36 1 -4.2689 0.924078 6.02933 0 0 0 
74 2 -2.52889 6.36349 0.52915 0 0 0 
37 2 -4.91065 0.0480459 5.99314 0 0 0 
75 2 -4.34878 6.32327 0.607784 0 0 0 
72 2 -3.29791 5.36886 1.69518 0 0 0 
51 1 -6.78542 4.51669 2.9306 0 0 0 
52 2 -7.79627 4.20065 3.16665 0 0 0 
53 2 -6.78561 4.98993 1.95201 0 0 0 
54 2 -6.39218 5.22364 3.64643 0 0 0 
55 2 -6.15587 3.61131 2.87373 0 0 0 
56 1 -7.65807 3.07351 5.97908 0 0 0 
60 2 -6.68407 2.80199 6.3498 0 0 0 
71 1 -3.40568 6.33218 1.19083 0 0 0 
73 2 -3.39821 7.15739 1.90291 0 0 0 
131 1 -1.01717 2.00047 3.78462 0 0 0 
135 2 -1.97464 2.41522 4.04309 0 0 0 
136 1 -3.03567 4.96737 5.39033 0 0 0 
137 2 -1.96054 4.88978 5.25695 0 0 0 
138 2 -3.53758 5.09794 4.44071 0 0 0 
139 2 -3.39748 4.10907 5.91894 0 0 0 
140 2 -3.31373 5.81464 6.05161 0 0 0 
154 2 0.352709 4.97326 2.75969 0 0 0 
134 2 -0.861784 2.01311 2.71429 0 0 0 
57 2 -7.8594 2.55589 5.05459 0 0 0 
159 2 -1.17517 7.86859 5.96103 0 0 0 
132 2 -1.01681 0.97776 4.19725 0 0 0 
153 2 -0.42326 5.07675 1.16058 0 0 0 
58 2 -7.71854 4.13517 5.80584 0 0 0 
208 2 1.10057 2.56692 0.0385978 0 0 0 
303 2 6.07907 4.86533 6.9007 0 0 -1 
225 2 1.27577 6.33396 6.69183 0 0 -1 
234 2 2.51664 4.72856 0.582858 0 0 0 
297 2 6.55844 0.614006 6.28774 0 0 0 
133 2 -0.228256 2.553 4.30021 0 0 0 
214 2 2.17654 -0.481018 4.48126 0 0 0 
296 1 5.87662 0.474492 7.12608 0 0 0 
155 2 -0.756357 6.32623 2.38607 0 0 0 
59 2 8.22945 2.78893 6.75012 -1 0 0 
300 2 5.91479 1.35958 -6.62765 0 0 1 
259 2 6.63532 7.4239 5.75269 0 -1 0 
151 1 0.00459882 5.66912 1.97987 0 0 0 
152 2 0.752849 6.24753 1.53218 0 0 0 
317 2 6.55969 5.24099 2.44014 0 0 0 
320 2 7.01355 5.8604 3.95351 0 0 0 
240 2 1.07886 7.75807 4.26367 0 0 0 
316 1 6.25832 5.92092 3.20106 0 0 0 
239 2 2.44574 7.03112 3.36979 0 0 0 
318 2 6.129 6.95637 2.90672 0 0 0 
216 1 2.70572 4.3115 4.73752 0 0 0 
217 2 2.59996 4.207 3.67995 0 0 0 
218 2 1.92965 3.78578 5.30307 0 0 0 
219 2 3.68099 3.85263 4.97921 0 0 0 
220 2 2.72713 5.36953 5.02087 0 0 0 
231 1 3.58694 4.72211 0.853908 0 0 0 
232 2 3.65036 4.20058 1.81527 0 0 0 
233 2 4.20192 4.28492 0.0442458 0 0 0 
235 2 3.91394 5.74555 0.943864 0 0 0 
236 1 2.11206 7.86998 3.97939 0 0 0 
291 1 6.08554 2.2985 2.76239 0 0 0 
292 2 6.99774 2.44148 2.21948 0 0 0 
293 2 5.32199 1.73699 2.25833 0 0 0 
294 2 6.32112 1.83803 3.67293 0 0 0 
295 2 5.55682 3.21049 3.05504 0 0 0 
319 2 5.32778 5.5357 3.63438 0 0 0 
ITEM: TIMESTEP
800
ITEM: NUMBER OF ATOMS
320
ITEM: BOX BOUNDS pp pp pp
-8.297 8.3174
-8.1455 8.1829
-7.2013 7.1735
ITEM: ATOMS id type x y z ix iy iz 
1 1 -5.80296 -6.36355 -6.00598 0 0 0 
2 2 -6.09739 -7.40929 -5.9096 0 0 0 
5 2 -5.75491 -5.84066 -5.07753 0 0 0 
6 1 -5.43474 -5.95122 -2.03336 0 0 0 
7 2 -5.1133 -6.49366 -1.12823 0 0 0 
8 2 -4.58561 -5.94412 -2.70301 0 0 0 
9 2 -6.27549 -6.45238 -2.55499 0 0 0 
10 2 -5.71537 -4.91452 -1.76615 0 0 0 
21 1 -4.52629 -2.22755 -5.34798 0 0 0 
22 2 -5.45703 -1.69166 -5.28192 0 0 0 
23 2 -4.6693 -3.28367 -5.5324 0 0 0 
24 2 -3.91229 -1.75525 -6.07976 0 0 0 
25 2 -3.98288 -2.05952 -4.41265 0 0 0 
26 1 -5.34569 -1.00813 -1.75978 0 0 0 
86 1 -1.47613 -7.29526 -1.02957 0 0 0 
106 1 -2.57632 -3.58498 -0.796598 0 0 0 
107 2 -3.5152 -3.27018 -0.277838 0 0 0 
110 2 -2.68301 -4.57164 -1.29062 0 0 0 
4 2 -6.48149 -5.85727 -6.74467 0 0 0 
89 2 -0.86411 -6.37876 -1.18464 0 0 0 
249 2 -8.26504 -2.47026 -2.55651 1 0 0 
246 1 7.95091 -3.29988 -1.93233 0 0 0 
3 2 -4.84672 -6.47084 -6.4354 0 0 0 
81 1 -1.51427 -4.94339 -5.68851 0 0 0 
29 2 -6.17276 -1.06794 -1.03978 0 0 0 
83 2 -1.16092 -4.05034 -5.1592 0 0 0 
87 2 -1.9366 -7.5337 -1.96628 0 0 0 
28 2 -4.49057 -0.523068 -1.31473 0 0 0 
103 2 -1.97421 0.340463 -2.89113 0 0 0 
82 2 -1.92643 -5.69041 -5.01255 0 0 0 
263 2 -7.26334 -3.44672 -5.85375 1 0 0 
90 2 -2.28232 -7.10096 -0.330513 0 0 0 
30 2 -5.06602 -1.9847 -2.03144 0 0 0 
108 2 -2.23973 -2.84242 -1.53362 0 0 0 
85 2 -2.30463 -4.59475 -6.41898 0 0 0 
189 2 0.0541795 -0.423883 -0.685366 0 0 0 
264 2 7.9249 -3.84778 -4.82728 0 0 0 
310 2 8.29093 -7.7301 -4.62211 0 1 0 
247 2 -7.86081 -3.59748 -1.22946 1 0 0 
185 2 0.952687 -2.96817 -1.76079 0 0 0 
250 2 7.5345 -4.15536 -2.44452 0 0 0 
248 2 7.13866 -2.80957 -1.34878 0 0 0 
161 1 1.60768 -5.99989 -4.0585 0 0 0 
162 2 1.18539 -7.00434 -3.99996 0 0 0 
163 2 1.32931 -5.56077 -5.03179 0 0 0 
164 2 1.14758 -5.42643 -3.25785 0 0 0 
165 2 2.67374 -6.05157 -3.91032 0 0 0 
166 1 4.14895 -5.08365 -1.4224 0 0 0 
181 1 0.88501 -2.36421 -2.67389 0 0 0 
182 2 -0.155315 -2.00803 -2.79331 0 0 0 
183 2 1.11652 -3.03822 -3.51469 0 0 0 
184 2 1.57158 -1.56711 -2.66036 0 0 0 
241 1 4.58381 -7.80227 -5.74692 0 0 0 
243 2 5.38924 7.79819 -5.65791 0 -1 0 
244 2 4.92038 -6.81948 -6.04205 0 0 0 
245 2 4.13656 -7.72467 -4.82062 0 0 0 
261 1 8.27887 -3.24844 -5.68052 0 0 0 
266 1 5.28337 -1.26248 -3.49622 0 0 0 
267 2 5.06827 -2.32128 -3.60948 0 0 0 
268 2 4.43346 -0.719648 -3.12726 0 0 0 
270 2 5.62454 -0.792456 -4.44389 0 0 0 
169 2 3.76715 -4.45235 -2.26202 0 0 0 
168 2 3.43734 -5.87653 -1.14809 0 0 0 
262 2 8.05317 -2.17572 -5.5333 0 0 0 
265 2 7.74233 -3.55311 -6.57066 0 0 0 
170 2 5.1173 -5.51237 -1.68413 0 0 0 
167 2 4.37002 -4.43599 -0.557596 0 0 0 
199 2 2.19249 -2.16836 -5.74546 0 0 1 
198 2 2.98108 -1.16416 -6.94094 0 0 1 
196 1 3.02092 -2.17477 -6.45532 0 0 1 
309 2 6.74541 -7.19374 -3.99767 0 1 0 
306 1 7.60153 -7.82056 -3.79594 0 1 0 
197 2 2.86518 -2.94624 -7.20911 0 0 1 
172 2 2.14738 -4.36964 0.898057 0 0 0 
194 2 4.71553 -1.87967 -0.716785 0 0 0 
88 2 -0.932177 -8.16347 -0.663629 0 0 0 
105 2 -3.4229 1.24675 -3.34384 0 0 0 
104 2 -1.91227 1.77087 -3.95157 0 0 0 
142 2 -2.73553 8.11238 -4.38799 0 0 0 
27 2 -5.59854 -0.438829 -2.65031 0 0 0 
144 2 -1.43352 7.61894 -5.46076 0 0 0 
101 1 -2.47099 0.87832 -3.74601 0 0 0 
143 2 -3.11724 7.13045 -5.84445 0 0 0 
102 2 -2.58796 0.304016 -4.6703 0 0 0 
41 1 -4.12952 3.67922 -4.84245 0 0 0 
42 2 -4.34854 4.36659 -5.68493 0 0 0 
43 2 -4.08173 2.62477 -5.17437 0 0 0 
44 2 -3.21399 3.98889 -4.29447 0 0 0 
45 2 -4.91845 3.7382 -4.11245 0 0 0 
47 2 -7.60692 4.41772 -1.23694 0 0 0 
61 1 -6.61731 6.14457 -6.43626 0 0 0 
63 2 -7.37791 6.93813 -6.26111 0 0 0 
64 2 -5.70377 6.39715 -5.91811 0 0 0 
66 1 -5.18807 6.28211 -2.5617 0 0 0 
67 2 -5.49121 5.27198 -2.37519 0 0 0 
68 2 -6.05207 6.90939 -2.61358 0 0 0 
69 2 -4.52603 6.67 -1.78308 0 0 0 
70 2 -4.65238 6.41201 -3.51156 0 0 0 
121 1 -0.797319 2.74019 -6.7166 0 0 0 
126 1 -3.30341 2.7289 -0.70305 0 0 0 
141 1 -2.39614 7.344 -5.05047 0 0 0 
145 2 -2.2152 6.47652 -4.4007 0 0 0 
146 1 -0.0664928 5.36535 -2.55286 0 0 0 
147 2 0.645421 5.91387 -3.14528 0 0 0 
150 2 -0.935998 5.97668 -2.23245 0 0 0 
129 2 -2.41733 3.0048 -1.25622 0 0 0 
62 2 -6.94826 5.1821 -6.06461 0 0 0 
125 2 -0.696345 3.00001 -5.66632 0 0 0 
130 2 -3.65524 3.53353 -0.0448443 0 0 0 
127 2 -4.03255 2.42134 -1.41068 0 0 0 
65 2 -6.43876 6.03811 6.83973 0 0 -1 
128 2 -3.12952 1.87125 -0.0778198 0 0 0 
122 2 0.0617972 2.12796 -7.04477 0 0 0 
148 2 -0.457534 4.50009 -3.12952 0 0 0 
124 2 -1.64711 2.13907 -6.87401 0 0 0 
284 2 -8.06885 2.0575 -3.60279 1 0 0 
281 1 -7.55155 1.8811 -4.58517 1 0 0 
308 2 7.3023 7.46082 -3.58985 0 0 0 
149 2 0.376403 5.01868 -1.59913 0 0 0 
285 2 -7.4439 0.803429 -4.79218 1 0 0 
50 2 -8.32967 4.83471 -2.82604 0 0 0 
269 2 6.11065 -1.14485 -2.8253 0 0 0 
299 2 5.50737 -0.309646 6.92901 0 0 0 
230 2 4.84442 6.96269 -3.02056 0 0 0 
46 1 8.17543 4.91903 -1.74384 -1 0 0 
229 2 3.65915 7.06199 -1.67119 0 0 0 
283 2 -6.57676 2.34722 -4.52984 1 0 0 
49 2 8.23014 5.97051 -1.4564 -1 0 0 
307 2 8.08378 -7.44414 -2.85588 0 1 0 
48 2 7.185 4.51779 -1.49034 -1 0 0 