ITEM: TIMESTEP
0
ITEM: NUMBER OF ATOMS
684
ITEM: BOX BOUNDS pp pp pp
-8.97768 9.95715
-9.30453 8.72947
-10.6677 12.0748
ITEM: ATOMS id type x y z ix iy iz 
20 1 -7.57847 -3.9481 -7.61958 0 0 0 
21 1 -7.34501 -3.80454 -9.13674 0 0 0 
27 2 -6.67954 -4.19268 -7.05592 0 0 0 
28 2 -7.07193 -4.7894 -9.50902 0 0 0 
29 2 -8.23228 -3.58957 -9.72087 0 0 0 
22 1 -6.31926 -2.7112 -9.4371 0 0 0 
30 2 -5.36728 -2.95482 -8.83354 0 0 0 
31 2 -6.82284 -1.85094 -9.02773 0 0 0 
175 2 -6.9074 -7.24756 -8.04908 0 1 0 
176 2 -8.15781 -7.70365 -9.2757 0 1 0 
241 2 -4.56105 -5.26419 -5.34631 0 0 0 
240 2 -5.04117 -7.59926 -6.24592 0 0 0 
252 2 -4.19453 -6.07841 -9.05137 0 0 0 
242 2 -3.22747 -5.60522 -6.40449 0 0 0 
232 1 -3.70561 -5.94842 -5.47066 0 0 0 
231 1 -4.2471 -7.47338 -5.53865 0 0 0 
244 2 -2.22655 -4.80749 -4.41945 0 0 0 
248 1 -2.03396 -6.05512 -9.29071 0 0 0 
255 2 -1.77365 -7.10334 -9.17096 0 0 0 
247 1 -3.4564 -5.76907 -9.81686 0 0 0 
246 2 -1.06516 -6.63361 -5.52159 0 0 0 
254 2 -1.88972 -5.56425 -8.30469 0 0 0 
234 1 -1.50295 -6.85234 -4.58663 0 0 0 
238 2 -2.58201 -8.20414 -6.69148 0 0 0 
229 1 -2.15498 -8.22069 -4.57967 0 0 0 
230 1 -3.10479 -8.418 -5.77987 0 0 0 
233 1 -2.63093 -5.801 -4.40139 0 0 0 
245 2 -0.852614 -6.73574 -3.73563 0 0 0 
85 2 -4.16836 -1.48751 -4.90773 0 0 0 
239 2 -4.6269 -7.66599 -4.52359 0 0 0 
78 1 -5.20528 -1.22365 -5.00196 0 0 0 
86 2 -5.49543 -1.20658 -5.98796 0 0 0 
26 2 -7.83968 -2.98287 -7.28891 0 0 0 
23 2 -8.39392 -5.91325 -7.24605 0 0 0 
171 1 -7.31072 -8.12662 -8.64576 0 1 0 
177 2 -7.61827 -8.85083 -7.91142 0 1 0 
180 2 -4.29887 -8.37431 -8.47159 0 1 0 
79 1 -6.01323 -2.41977 -4.33932 0 0 0 
88 2 -5.95969 -3.25662 -5.06044 0 0 0 
253 2 -3.55359 -4.64406 -10.0437 0 0 0 
249 1 -1.06941 -5.64219 -10.3878 0 0 0 
179 2 -5.84276 -7.97214 -10.3496 0 1 0 
236 2 -2.64844 -8.42445 -3.63034 0 0 0 
87 2 -5.39173 -2.75515 -3.51713 0 0 0 
19 1 -8.71852 -4.9465 -7.26518 0 0 0 
90 2 -7.95719 -1.73069 -5.07893 0 0 0 
403 2 0.135314 -8.45438 -6.98164 0 1 0 
250 1 0.440242 -5.99559 -10.1695 0 0 0 
341 2 0.326067 -0.89637 -8.45109 0 0 0 
243 2 -3.19737 -6.02855 -3.46231 0 0 0 
80 1 -7.45218 -2.03199 -4.04539 0 0 0 
10 2 -8.64591 -8.61343 -3.54526 0 0 0 
257 2 -1.15096 -4.52705 -10.4438 0 0 0 
569 2 -8.91136 -0.554025 -7.46911 1 0 0 
570 2 -8.80984 -0.811404 -9.2109 1 0 0 
172 1 -6.1449 -8.6535 -9.57039 0 1 0 
235 2 -1.34779 -8.94433 -4.72046 0 0 0 
173 1 -4.9989 -9.22583 -8.71073 0 1 0 
7 2 -8.49946 -6.12114 -3.44097 0 0 0 
89 2 -8.08668 -2.75518 -3.54917 0 0 0 
81 1 -7.4702 -0.788481 -3.18209 0 0 0 
258 2 0.538271 -6.88954 -9.52928 0 0 0 
259 2 0.960562 -5.21679 -9.58471 0 0 0 
24 2 9.90941 -4.66885 -6.28319 -1 0 0 
487 2 8.61141 -8.58182 -9.80766 0 0 0 
405 2 1.71181 -7.80405 -6.74299 0 1 0 
473 2 1.66499 -4.18356 -6.86126 0 0 0 
471 2 1.44401 -4.36577 -4.51863 0 0 0 
464 2 2.88768 -2.33652 -5.44147 0 0 0 
472 2 1.54467 -6.06669 -5.16307 0 0 0 
25 2 9.4733 -4.8581 -8.0133 -1 0 0 
462 1 2.5582 -4.35904 -6.23317 0 0 0 
461 1 2.13312 -5.13473 -4.99588 0 0 0 
474 2 3.07959 -5.0913 -6.86301 0 0 0 
481 2 5.36886 -7.68414 -6.41578 0 0 0 
479 2 6.33605 -6.24459 -6.85329 0 0 0 
480 2 4.5662 -6.51226 -7.44397 0 0 0 
470 2 3.96524 -6.24281 -4.52729 0 0 0 
463 2 3.67499 -2.72685 -6.93857 0 0 0 
457 1 3.44458 -3.14555 -5.94957 0 0 0 
465 2 5.3296 -2.79352 -4.90866 0 0 0 
475 1 5.59087 -6.98215 -7.26163 0 0 0 
483 2 6.36359 -7.09971 -9.30703 0 0 0 
476 1 6.11702 -7.77555 -8.41828 0 0 0 
482 2 5.34499 -8.45875 -8.77526 0 0 0 
466 2 5.28286 -4.39206 -5.55095 0 0 0 
458 1 4.64261 -3.62158 -5.10519 0 0 0 
553 1 6.51106 -2.62276 -9.12787 0 0 0 
559 2 6.68305 -4.57621 -8.42214 0 0 0 
562 2 8.53201 -2.30497 -9.81288 0 0 0 
459 1 4.10813 -4.27291 -3.77827 0 0 0 
460 1 3.3184 -5.49293 -4.01457 0 0 0 
554 1 7.9449 -2.18088 -8.87926 0 0 0 
477 1 7.31814 -8.70734 -8.02837 0 0 0 
484 2 8.04034 -8.13824 -7.41224 0 0 0 
615 2 3.44456 -8.50915 -4.12657 0 1 0 
409 2 1.81137 -8.55623 -9.00069 0 1 0 
563 2 8.33541 -2.66817 -8.05849 0 0 0 
18 2 8.30108 -7.35934 -4.02362 -1 0 0 
552 1 6.36086 -4.13968 -9.32715 0 0 0 
265 2 3.10871 -5.60145 -10.4839 0 0 0 
561 2 5.94251 -2.30352 -8.27392 0 0 0 
560 2 5.98119 -2.10221 -9.94789 0 0 0 
468 2 4.8772 -4.55363 -3.136 0 0 0 
467 2 3.52762 -3.53332 -3.31617 0 0 0 
558 2 5.30424 -4.31847 -9.56844 0 0 0 
338 2 2.97898 -0.533504 -8.54589 0 0 0 
557 2 8.12879 -4.23299 -10.5914 0 0 0 
399 1 1.06938 -8.65877 -6.50146 0 1 0 
404 2 0.932021 -8.83508 -5.43788 0 1 0 
551 1 7.0847 -4.66207 -10.5705 0 0 0 
564 1 8.10281 -0.634487 -8.58126 0 0 0 
565 2 7.58183 -0.375902 -7.70379 0 0 0 
555 2 7.22495 -5.74567 -10.5768 0 0 0 
17 2 7.83326 -5.8195 -3.28595 -1 0 0 
6 1 8.31136 -6.76617 -3.12506 -1 0 0 
237 2 -3.46726 8.62644 -5.83484 0 -1 0 
113 2 -2.61838 -0.0798488 -6.31108 0 0 0 
94 2 -7.44952 0.732572 -4.81117 0 0 0 
112 2 -1.44541 1.19513 -6.3979 0 0 0 
77 1 -5.41756 0.190023 -4.38253 0 0 0 
82 1 -6.87465 0.433224 -3.9367 0 0 0 
83 2 -4.94955 0.955883 -5.09961 0 0 0 
114 2 -1.81392 0.142655 -7.79378 0 0 0 
84 2 -4.81364 0.221029 -3.53161 0 0 0 
111 1 -2.28885 0.705261 -6.98263 0 0 0 
109 2 -4.00408 2.04217 -6.66218 0 0 0 
108 1 -3.31666 1.66052 -7.46262 0 0 0 
182 2 -4.14895 7.94991 -10.4734 0 0 0 
110 2 -2.72711 2.46095 -7.88543 0 0 0 
181 2 -5.42664 8.37598 -7.84118 0 0 0 
105 2 -5.81675 2.4971 -8.07601 0 0 0 
104 2 -4.91173 3.09809 -9.43934 0 0 0 
97 1 -5.32301 2.16805 -9.00097 0 0 0 
98 1 -4.23516 1.15034 -8.61089 0 0 0 
95 1 -7.22364 2.94118 -10.4001 0 0 0 
96 1 -6.38298 1.71473 -9.9544 0 0 0 
174 1 -4.17896 7.712 -9.43621 0 0 0 
106 2 -3.70294 0.861276 -9.58189 0 0 0 
183 2 -4.81429 6.83465 -9.38177 0 0 0 
107 2 -4.79358 0.282017 -8.35158 0 0 0 
184 1 -2.79323 7.48455 -8.96993 0 0 0 
101 2 -7.94153 3.24565 -9.59399 0 0 0 
185 2 -2.79482 7.18758 -7.91804 0 0 0 
186 2 -2.18822 8.40901 -8.99873 0 0 0 
187 1 -2.03049 6.40708 -9.76559 0 0 0 
188 2 -1.19983 5.95638 -9.24452 0 0 0 
631 2 -6.33752 4.70951 -6.27898 1 0 0 
635 2 -7.68968 5.67334 -8.38506 1 0 0 
632 2 -5.675 5.67549 -7.58421 1 0 0 
627 1 -6.36509 5.73859 -6.72369 1 0 0 
628 1 -7.77431 5.83667 -7.31183 1 0 0 
396 2 0.208012 4.15053 -3.46251 0 0 0 
394 2 -0.854002 6.21258 -4.06242 0 0 0 
384 1 -0.0255246 6.24289 -3.35127 0 0 0 
634 2 -8.15044 6.80252 -7.12901 1 0 0 
93 2 -6.89305 1.27668 -3.27692 0 0 0 
636 2 -8.39197 3.89415 -6.46152 1 0 0 
633 2 -6.03985 6.44866 -6.00708 1 0 0 
629 1 -8.78369 4.84236 -6.65698 1 0 0 
102 2 -6.91614 0.771838 -9.55523 0 0 0 
189 2 -2.70863 5.66956 -10.2207 0 0 0 
178 2 -6.59679 8.576 -10.2104 0 0 0 
637 2 -8.94872 5.27102 -5.71396 1 0 0 
342 2 0.188495 0.827878 -8.65935 0 0 0 
190 2 -1.68169 6.91824 -10.6675 0 0 0 
318 2 1.38411 -0.120427 -4.05381 0 0 0 
609 1 3.44439 8.52169 -3.8391 0 0 0 
340 2 0.875344 -0.180596 -9.97282 0 0 0 
478 1 8.17292 8.67428 -9.17282 0 -1 0 
486 2 8.91518 8.08188 -8.62839 0 -1 0 
485 2 6.89882 8.62681 -7.39136 0 -1 0 
567 1 9.59788 -0.236595 -8.43017 0 0 0 
568 2 9.73793 0.845751 -8.48461 0 0 0 
393 2 0.902915 6.52169 -3.984 0 0 0 
335 2 3.87757 1.7828 -8.24443 0 0 0 
616 2 2.63058 8.09711 -4.24801 0 0 0 
337 2 2.11927 0.367475 -7.33398 0 0 0 
410 2 3.74089 7.90595 -9.15332 0 0 0 
336 1 2.29288 0.268721 -8.42278 0 0 0 
406 2 2.62611 7.96799 -6.83685 0 0 0 
401 1 1.65178 8.40077 -8.75308 0 0 0 
408 2 0.706808 8.19815 -9.10378 0 0 0 
317 2 2.79386 0.518475 -3.51016 0 0 0 
400 1 1.61092 8.14118 -7.23837 0 0 0 
402 1 2.70759 7.61428 -9.50259 0 0 0 
339 1 0.888522 -0.00988886 -8.91781 0 0 0 
566 2 7.75667 -0.0221505 -9.41854 0 0 0 
638 2 9.2523 4.23358 -8.4337 0 0 0 
488 1 7.57672 7.66832 -10.0981 0 -1 0 
334 2 2.30278 2.46129 -8.63067 0 0 0 
326 1 2.93234 1.6177 -8.83259 0 0 0 
407 2 0.941777 7.22726 -7.11767 0 0 0 
414 2 2.59177 5.93934 -8.07531 0 0 0 
412 1 2.71073 6.04851 -9.17375 0 0 0 
623 2 3.68908 5.78889 -4.50588 0 0 0 
614 1 4.62796 7.83248 -4.52741 0 0 0 
625 2 4.44415 7.90656 -5.70919 0 0 0 
613 1 4.57272 6.30925 -4.14035 0 0 0 
639 2 8.4908 5.6202 -7.77461 0 0 0 
630 1 8.93278 4.65817 -7.51709 0 0 0 
642 2 8.20891 2.76779 -6.86934 0 0 0 
640 1 7.90383 3.8108 -6.78414 0 0 0 
641 2 7.97233 4.16186 -5.71786 0 0 0 
624 2 5.38141 5.76763 -4.61692 0 0 0 
646 2 6.55581 3.52237 -8.44368 0 0 0 
643 1 6.52284 3.90332 -7.42749 0 0 0 
644 2 5.91383 3.21715 -6.84827 0 0 0 
645 2 6.05515 4.89712 -7.4807 0 0 0 
413 2 1.98207 5.47212 -9.75739 0 0 0 
626 2 5.54872 8.34279 -4.29352 0 0 0 
490 2 6.93967 6.93842 -9.54216 0 -1 0 
331 2 5.4677 1.62709 -10.0868 0 0 0 
325 1 3.30622 1.59783 -10.3551 0 0 0 
411 2 2.77153 7.86716 -10.5684 0 0 0 
415 1 4.02628 5.38054 -9.53459 0 0 0 
416 2 4.08378 4.37008 -9.2666 0 0 0 
418 2 4.96422 5.89691 -9.20792 0 0 0 
308 1 1.81392 0.177827 -3.17448 0 0 0 
494 2 9.21231 6.27017 -10.5179 0 -1 0 
417 2 4.23362 5.42901 -10.5773 0 0 0 
332 2 3.22531 2.65948 -10.6243 0 0 0 
9 2 -7.39988 -8.00823 -2.24462 0 0 0 
61 2 -2.67706 -4.67314 -1.51596 0 0 0 
57 1 -2.53411 -3.63591 -1.32794 0 0 0 
65 2 -4.42687 -3.24638 -0.509477 0 0 0 
58 1 -3.41075 -3.2414 -0.145983 0 0 0 
215 2 -3.81702 -7.06598 -1.27504 0 1 0 
214 2 -5.47861 -6.27366 -1.29258 0 1 0 
209 1 -4.89357 -7.1631 -1.19301 0 1 0 
213 2 -5.2238 -7.87884 -1.92042 0 1 0 
216 2 -5.03997 -6.8193 0.779453 0 1 0 
62 2 -2.77833 -3.10948 -2.18474 0 0 0 
59 1 -3.20846 -4.11843 1.14779 0 0 0 
219 2 -3.02558 -8.40546 0.421687 0 1 0 
66 2 -3.49533 -5.16802 0.901833 0 0 0 
210 1 -5.13032 -7.78319 0.217667 0 1 0 
67 2 -2.11852 -4.13981 1.39536 0 0 0 
64 2 -3.22028 -2.18874 0.111225 0 0 0 
211 1 -4.05674 -8.73533 0.611899 0 1 0 
217 2 -6.13869 -8.12751 0.486121 0 1 0 
221 2 -4.0027 -8.22412 2.81867 0 1 0 
68 2 -5.02416 -3.67303 1.92607 0 0 0 
60 1 -4.06129 -3.80635 2.35792 0 0 0 
63 2 -1.50473 -3.50302 -1.07658 0 0 0 
285 1 -0.912424 -6.75302 -0.539598 0 0 0 
291 2 -1.41955 -7.07335 -1.47736 0 0 0 
290 2 -0.157365 -5.96599 -0.714203 0 0 0 
286 1 -0.145975 -7.88894 0.161635 0 0 0 
292 2 -0.939278 -8.58037 0.483586 0 0 0 
289 2 -1.68953 -6.20924 0.0502735 0 0 0 
368 2 -0.85225 -2.50262 2.49584 0 0 0 
362 1 -0.184209 -1.74353 2.89325 0 0 0 
69 2 -3.73064 -2.87568 2.78013 0 0 0 
2 1 -8.48016 -8.0884 -2.58227 0 0 0 
608 2 -8.14889 -2.4399 1.75451 1 0 0 
607 2 -6.62427 -2.52114 0.805461 1 0 0 
524 2 -8.72541 -7.32691 2.36384 1 0 0 
532 2 -6.24736 -7.74587 3.42136 1 0 0 
361 1 -0.682873 -1.19339 4.16689 0 0 0 
369 2 -0.21821 -0.899347 2.29968 0 0 0 
311 2 -1.18348 -1.15242 -1.3026 0 0 0 
605 1 -7.43713 -1.90377 1.09414 1 0 0 
72 2 -4.39454 -5.76976 3.01249 0 0 0 
70 1 -4.11199 -4.84237 3.45797 0 0 0 
71 2 -3.1056 -4.95947 3.96414 0 0 0 
305 1 -0.288417 -0.658874 -1.26922 0 0 0 
603 2 -6.40704 -0.879658 2.65352 1 0 0 
92 2 -8.53582 -0.774476 -2.93676 0 0 0 
365 2 -1.69858 -0.849881 4.05199 0 0 0 
606 2 -7.93994 -1.59545 0.154543 1 0 0 
91 2 -6.91794 -0.922326 -2.25952 0 0 0 
312 2 -0.18227 -0.366099 -0.207464 0 0 0 
529 1 -6.66316 -7.96857 4.39869 1 0 0 
531 2 -6.9319 -9.0167 4.36521 1 0 0 
322 2 0.308925 -2.01995 -2.84482 0 0 0 
11 2 -8.78846 -8.60412 -0.505332 0 0 0 
295 2 0.353606 -6.83077 2.05261 0 0 0 
212 1 -4.0502 -9.08909 2.11609 0 1 0 
602 1 -6.81531 -0.591899 1.69976 1 0 0 
598 2 -8.84278 -0.751805 3.60352 1 0 0 
297 2 0.25227 -9.06695 2.90188 0 0 0 
275 2 -0.340472 -6.4871 4.11804 0 0 0 
76 2 -6.12596 -4.61032 4.01355 0 0 0 
73 1 -5.13701 -4.64664 4.48405 0 0 0 
469 2 2.91772 -5.84104 -3.02782 0 0 0 
371 2 1.23942 -3.10113 3.71939 0 0 0 
8 2 9.94492 -6.0299 -1.88936 -1 0 0 
293 2 0.502945 -8.37078 -0.558967 0 0 0 
320 2 2.63032 -1.82684 -2.80024 0 0 0 
1 1 9.83896 -6.67261 -2.7518 -1 0 0 
309 1 2.00556 -1.05472 -2.29224 0 0 0 
363 1 1.22445 -2.33407 2.98875 0 0 0 
373 2 0.734535 -3.42242 1.22758 0 0 0 
525 2 9.59797 -8.513 3.6221 0 0 0 
617 2 2.65337 -9.14115 -1.7783 0 1 0 
287 1 0.775276 -7.5326 1.39148 0 0 0 
294 2 1.63112 -7.09735 0.935905 0 0 0 
377 1 3.04361 -4.55195 0.268601 0 0 0 
374 1 2.75619 -3.91767 1.6693 0 0 0 
364 1 1.5818 -2.90166 1.65056 0 0 0 
375 2 2.48928 -4.82985 2.24937 0 0 0 
378 2 3.88829 -5.20843 0.260022 0 0 0 
380 2 3.21523 -3.86995 -0.535366 0 0 0 
15 2 7.92267 -6.77125 -0.977845 -1 0 0 
3 1 9.71999 -8.87215 -1.47616 -1 0 0 
379 2 2.06376 -5.04433 0.0474678 0 0 0 
5 1 7.582 -7.38259 -1.87807 -1 0 0 
13 2 7.77361 -9.13861 -0.61952 -1 0 0 
16 2 6.50909 -7.30652 -1.90074 -1 0 0 
4 1 8.17278 -8.73994 -1.55218 -1 0 0 
519 2 5.62888 -6.63587 1.93901 0 0 0 
513 1 6.55918 -6.16032 2.38075 0 0 0 
520 2 7.29181 -8.13573 3.10719 0 0 0 
518 2 7.00194 -5.41576 1.69499 0 0 0 
515 1 8.73285 -6.54794 3.46286 0 0 0 
514 1 7.64029 -7.17924 2.58827 0 0 0 
516 1 9.86702 -7.42266 3.43637 0 0 0 
521 2 8.07147 -7.63982 1.67988 0 0 0 
517 2 6.09771 -5.78489 3.26909 0 0 0 
310 1 0.673218 -1.63312 -1.8966 0 0 0 
372 2 1.83907 -2.05485 1.00124 0 0 0 
321 2 0.848106 -2.41483 -1.18368 0 0 0 
299 2 1.73453 -7.85837 4.03862 0 0 0 
545 2 7.1842 -1.58246 -1.97782 0 0 0 
298 1 2.28248 -8.4271 3.26827 0 0 0 
376 2 3.63082 -3.54405 2.13812 0 0 0 
544 2 5.37095 -1.87208 -0.200694 0 0 0 
300 2 3.08643 -7.85444 2.67617 0 0 0 
288 1 1.18183 -8.73804 2.29357 0 0 0 
370 2 1.85258 -1.50511 3.31159 0 0 0 
536 1 6.95914 -0.84019 -1.23522 0 0 0 
522 2 8.99283 -5.5854 2.97835 0 0 0 
543 2 4.82547 -1.07933 -1.7481 0 0 0 
535 1 5.50304 -1.02618 -0.87768 0 0 0 
523 2 8.35008 -6.30884 4.48938 0 0 0 
319 2 2.59946 -0.785756 -1.4107 0 0 0 
599 2 9.27422 -0.878462 2.07296 0 0 0 
618 2 4.32305 -8.98296 -1.94137 0 1 0 
546 2 7.6956 -0.984906 -0.491928 0 0 0 
454 2 4.09722 -0.391488 4.46083 0 0 0 
595 2 7.18946 -0.509373 3.04969 0 0 0 
314 2 -0.937395 0.358028 -2.80446 0 0 0 
392 2 -0.308846 8.35235 -2.7539 0 0 0 
218 2 -4.26977 8.3747 0.102902 0 0 0 
223 2 -1.9439 8.33622 2.50205 0 0 0 
385 1 0.113366 4.87538 -2.70122 0 0 0 
383 1 -0.215831 7.36272 -2.30065 0 0 0 
398 2 -1.9269 4.44219 -2.47728 0 0 0 
397 2 -0.85526 3.56655 -1.52398 0 0 0 
386 1 -1.06491 4.53273 -1.83323 0 0 0 
220 2 -5.05814 8.45948 2.2797 0 0 0 
387 2 -1.97407 5.27769 -0.15419 0 0 0 
381 1 -1.13932 5.6061 -0.764774 0 0 0 
390 2 -2.36053 6.80916 -2.03508 0 0 0 
601 2 -8.2521 0.895177 1.0155 1 0 0 
222 1 -2.92946 7.95832 2.56491 0 0 0 
388 2 -0.305561 5.51917 -0.07319 0 0 0 
306 1 -0.366059 0.653365 -1.99895 0 0 0 
604 2 -6.01674 -0.267922 1.00054 1 0 0 
167 2 -6.58975 5.556 -1.44976 0 0 0 
165 2 -4.35524 5.81142 -0.460922 0 0 0 
163 2 -4.47756 3.96179 -1.858 0 0 0 
168 2 -6.8967 6.38565 -0.0289644 0 0 0 
157 1 -6.52449 5.49339 -0.421927 0 0 0 
166 2 -4.96071 5.16653 0.940682 0 0 0 
156 1 -5.07441 5.09237 -0.153366 0 0 0 
139 2 -4.44314 4.87211 3.81902 0 0 0 
170 2 -7.26176 4.04891 1.02047 0 0 0 
158 1 -7.32471 4.28248 -0.0347688 0 0 0 
153 1 -6.90446 3.05572 -0.795816 0 0 0 
154 1 -5.47784 2.56942 -0.516506 0 0 0 
155 1 -4.56906 3.79947 -0.783584 0 0 0 
159 2 -7.70614 2.27971 -0.594927 0 0 0 
160 2 -6.9891 3.20544 -1.90347 0 0 0 
161 2 -5.23992 1.71574 -1.13582 0 0 0 
162 2 -5.47294 2.34969 0.5461 0 0 0 
164 2 -3.52837 3.67278 -0.478973 0 0 0 
224 2 -2.94566 7.05294 1.97548 0 0 0 
133 1 -3.82488 4.10848 4.23116 0 0 0 
138 2 -3.91099 3.21499 3.67647 0 0 0 
313 2 -1.03122 1.3871 -1.49519 0 0 0 
437 1 0.239906 5.54361 2.95358 0 0 0 
389 2 -1.63483 7.60548 -0.598086 0 0 0 
382 1 -1.44137 6.94062 -1.42945 0 0 0 
441 2 -0.800716 5.7675 2.81712 0 0 0 
169 2 -8.36917 4.48825 -0.268147 0 0 0 
137 2 -2.83106 4.53178 4.16534 0 0 0 
683 2 -7.19597 4.67982 3.7211 1 0 0 
592 1 -7.94266 0.418486 1.95976 1 0 0 
600 2 -7.5782 1.38351 2.4733 1 0 0 
681 1 -7.3098 5.78723 3.68034 1 0 0 
684 2 -6.75579 6.16712 2.82663 1 0 0 
225 1 -3.27515 7.50475 3.9576 0 0 0 
226 2 -4.20609 7.00181 3.88936 0 0 0 
445 2 -0.607166 3.71985 3.42349 0 0 0 
678 1 -8.76163 6.24809 3.62508 1 0 0 
227 2 -2.4178 6.84304 4.32864 0 0 0 
676 2 -8.83972 6.16194 1.49132 1 0 0 
680 2 -8.90665 7.34699 3.74449 1 0 0 
438 1 0.340935 4.20443 3.6081 0 0 0 
12 2 -8.82326 8.15476 -1.57106 0 -1 0 
316 2 0.790803 2.05801 -2.96996 0 0 0 
541 2 3.9069 -0.0794736 0.232976 0 0 0 
442 2 0.708548 6.37297 3.43705 0 0 0 
446 2 1.28015 2.78816 2.14718 0 0 0 
679 2 9.56212 5.84778 4.48099 0 0 0 
591 1 9.81973 -0.173252 2.74344 0 0 0 
14 2 7.86994 8.54874 -2.28629 -1 -1 0 
534 1 4.96856 0.120481 -0.012712 0 0 0 
610 1 3.49707 8.44661 -2.34092 0 0 0 
542 2 5.53813 0.208127 0.935467 0 0 0 
395 2 1.07018 4.82371 -2.08911 0 0 0 
307 1 0.962671 1.15931 -2.43362 0 0 0 
315 2 1.57444 1.40809 -1.53924 0 0 0 
391 2 0.681218 7.42885 -1.65831 0 0 0 
443 2 0.684499 5.54428 1.95826 0 0 0 
301 1 2.79237 8.4001 3.96977 0 -1 0 
447 2 2.45053 4.04827 2.81027 0 0 0 
619 2 2.56512 6.4447 -1.98593 0 0 0 
547 2 6.94936 0.440243 -2.88028 0 0 0 
612 1 4.59782 6.11136 -2.61201 0 0 0 
621 2 4.40031 5.04403 -2.36382 0 0 0 
622 2 5.58327 6.3448 -2.12012 0 0 0 
611 1 3.53179 6.96428 -1.90746 0 0 0 
549 2 6.66811 2.60257 -1.80475 0 0 0 
540 2 4.48941 1.30445 -1.73985 0 0 0 
548 2 8.34843 0.670722 -2.10849 0 0 0 
296 2 1.51575 8.50963 1.62867 0 -1 0 
539 2 4.67997 2.24248 -0.155231 0 0 0 
597 2 9.26911 1.44842 3.92117 0 0 0 
533 1 5.08029 1.4452 -0.756355 0 0 0 
537 1 7.25595 0.513071 -1.86834 0 0 0 
538 1 6.57629 1.73171 -1.16786 0 0 0 
671 2 5.24491 6.01168 0.387149 0 0 0 
670 2 5.98861 7.53959 0.554289 0 0 0 
550 2 7.15318 2.00693 -0.323318 0 0 0 
439 1 1.59169 3.4182 3.03281 0 0 0 
440 1 2.02896 2.45873 4.07699 0 0 0 
450 1 3.03144 1.37769 3.68764 0 0 0 
451 2 3.91662 1.8079 3.2199 0 0 0 
620 2 3.5814 7.12024 -0.831296 0 0 0 
452 2 2.44399 0.783833 2.9662 0 0 0 
665 1 5.84922 6.59311 1.04516 0 0 0 
672 2 7.06821 4.85685 1.70535 0 0 0 
666 1 7.18976 5.87148 1.32728 0 0 0 
667 1 8.1316 6.57059 2.28595 0 0 0 
668 1 9.47383 5.82938 2.31497 0 0 0 
673 2 7.6562 5.69132 0.375642 0 0 0 
677 2 9.31985 4.72412 2.40189 0 0 0 
674 2 8.33664 7.50401 1.81632 0 0 0 
669 2 5.17739 6.60722 1.92847 0 0 0 
589 1 7.62114 0.155654 3.8273 0 0 0 
675 2 7.73439 6.80334 3.27874 0 0 0 
594 2 6.77832 0.85984 3.97365 0 0 0 
590 1 8.80912 0.873013 3.18586 0 0 0 
596 2 8.51851 1.44555 2.25934 0 0 0 
303 2 2.94117 7.59595 3.24856 0 -1 0 
448 2 1.15987 1.8968 4.39706 0 0 0 
658 2 5.47394 3.91714 4.1295 0 0 0 
251 2 -3.60045 -6.23989 11.9915 0 0 -1 
36 2 -3.80421 -2.31884 11.6319 0 0 -1 
38 2 -4.93873 -0.8258 11.8465 0 0 -1 
366 2 -0.742354 -1.95902 5.01081 0 0 0 
367 2 -0.104925 -0.459139 4.71496 0 0 0 
37 2 -4.73465 -1.79891 10.3059 0 0 -1 
32 1 -6.03024 -2.62068 11.7558 0 0 -1 
33 2 -6.92799 -2.17518 11.292 0 0 -1 
35 1 -4.78419 -1.85069 11.4168 0 0 -1 
526 1 -7.93601 -7.13152 4.51354 1 0 0 
273 2 -1.3082 -4.20542 4.97764 0 0 0 
34 2 -6.04774 -3.62671 11.2947 0 0 -1 
256 2 -1.35491 -6.08239 11.4234 0 0 -1 
75 2 -4.85 -3.68981 4.99894 0 0 0 
74 2 -5.05096 -5.41675 5.28159 0 0 0 
45 2 -7.28099 -4.68832 6.99777 0 0 0 
48 2 -7.18579 -7.32895 7.77852 0 0 0 
280 2 -1.88427 -7.85518 7.51396 0 0 0 
40 1 -6.82308 -6.50464 8.43465 0 0 0 
50 2 -6.60286 -7.54926 10.1639 0 0 0 
284 2 -2.57831 -5.28883 6.81008 0 0 0 
282 2 -1.52368 -5.9888 8.88429 0 0 0 
279 2 -0.306578 -8.05038 8.14087 0 0 0 
270 1 -0.900681 -7.37589 7.48401 0 0 0 
271 1 -0.910216 -5.97345 7.98847 0 0 0 
272 1 -1.58055 -5.00814 6.98651 0 0 0 
281 2 0.104994 -5.72277 8.32973 0 0 0 
283 2 -1.46249 -4.08136 7.44925 0 0 0 
41 1 -7.2876 -6.84067 9.87106 0 0 0 
47 2 -5.72267 -6.40204 8.4089 0 0 0 
39 1 -7.50501 -5.1728 7.97374 0 0 0 
49 2 -7.04061 -5.9125 10.4828 0 0 0 
46 2 -7.19175 -4.46103 8.72763 0 0 0 
127 2 -8.00255 -2.24794 8.02969 0 0 0 
118 1 -7.56114 -1.30534 7.80647 0 0 0 
276 2 -1.82552 -6.84359 4.90591 0 0 0 
268 1 -0.864807 -6.37544 5.08576 0 0 0 
128 2 -6.48806 -1.5262 7.87995 0 0 0 
267 1 -0.853365 -4.93733 5.64323 0 0 0 
528 2 -7.72917 -6.10871 4.55498 1 0 0 
530 2 -5.95953 -7.73886 5.1567 1 0 0 
274 2 0.129723 -4.63307 5.83373 0 0 0 
130 2 -7.67709 -1.60164 5.66012 0 0 0 
350 2 -0.320867 -1.52732 8.30829 0 0 0 
119 1 -7.99406 -0.878011 6.39209 0 0 0 
527 2 -8.4414 -7.39045 5.49024 1 0 0 
269 1 -0.173206 -7.37027 6.1293 0 0 0 
278 2 -0.218148 -8.38329 5.65085 0 0 0 
126 2 -7.70686 -0.485485 9.8073 0 0 0 
150 2 -2.39527 -0.512615 9.09414 0 0 0 
42 1 -8.81144 -7.14587 9.96477 0 0 0 
593 2 7.85868 -0.308149 4.748 0 0 0 
44 1 9.88399 -5.4575 8.03658 -1 0 0 
263 1 2.75188 -6.212 11.4715 0 0 -1 
261 2 0.92475 -5.44778 10.5648 0 0 -1 
266 2 3.21424 -7.14476 11.756 0 0 -1 
353 2 0.534638 -2.55131 10.6504 0 0 0 
260 1 1.21735 -6.16044 11.2471 0 0 -1 
56 2 9.63976 -6.25255 7.32645 -1 0 0 
277 2 0.838702 -7.09007 6.27231 0 0 0 
55 2 9.23008 -4.58132 7.77759 -1 0 0 
52 2 9.87743 -8.0403 9.39161 -1 0 0 
51 2 9.93543 -7.3563 10.9938 -1 0 0 
43 1 9.44929 -5.88289 9.47216 -1 0 0 
54 2 8.43094 -6.23024 9.42149 -1 0 0 
354 2 1.75569 -1.55986 11.4451 0 0 0 
345 1 1.39239 -1.90699 10.5192 0 0 0 
262 2 0.819873 -7.07123 10.8932 0 0 -1 
346 1 2.57935 -2.65562 9.85905 0 0 0 
355 2 2.82817 -3.48209 10.457 0 0 0 
356 2 3.46216 -1.99854 9.8297 0 0 0 
357 2 1.22735 -3.62812 8.41953 0 0 0 
347 1 2.09452 -3.03834 8.41854 0 0 0 
358 2 2.76418 -3.48339 7.78563 0 0 0 
348 1 1.73889 -1.74615 7.65826 0 0 0 
264 2 3.23441 -5.93996 10.5146 0 0 -1 
503 2 5.01922 -7.61516 5.03488 0 0 0 
359 2 1.47847 -1.92568 6.66986 0 0 0 
53 2 9.50576 -5.11323 10.222 -1 0 0 
556 2 6.5409 -4.36502 11.2997 0 0 -1 
495 1 6.55922 -8.81288 6.07333 0 0 0 
582 2 4.35579 -2.29275 6.20933 0 0 0 
573 1 5.35261 -2.35109 6.62563 0 0 0 
500 1 7.18581 -8.8187 7.46989 0 0 0 
512 2 7.701 -7.89197 7.61143 0 0 0 
504 2 6.20089 -6.7054 6.10562 0 0 0 
496 1 5.54985 -7.61552 6.05585 0 0 0 
497 1 4.40806 -7.71476 7.16111 0 0 0 
506 2 3.81791 -6.79383 7.16067 0 0 0 
508 2 5.37714 -7.00616 9.00505 0 0 0 
498 1 5.02297 -7.94606 8.55535 0 0 0 
499 1 6.08814 -8.97951 8.52226 0 0 0 
510 2 6.61956 -9.12728 9.4484 0 0 0 
583 2 5.2693 -4.3867 7.55836 0 0 0 
574 1 5.57654 -3.3385 7.74507 0 0 0 
507 2 4.26178 -8.27667 9.25559 0 0 0 
505 2 3.67372 -8.46538 6.84359 0 0 0 
584 2 4.97993 -2.90839 8.5717 0 0 0 
575 1 7.10257 -3.184 8.25547 0 0 0 
586 2 7.38532 -3.80955 9.07339 0 0 0 
585 2 7.74921 -3.42788 7.38018 0 0 0 
501 2 7.16104 -8.59765 5.17657 0 0 0 
581 2 6.07188 -2.56346 5.8165 0 0 0 
580 2 5.02728 -0.491381 7.86124 0 0 0 
572 1 5.71029 -0.891069 7.09079 0 0 0 
360 2 2.71269 -1.1785 7.67564 0 0 0 
343 1 0.622999 -0.974262 8.36367 0 0 0 
588 2 6.76924 -1.38468 9.67429 0 0 0 
576 1 7.36836 -1.77107 8.85634 0 0 0 
344 1 1.03056 -0.671385 9.76547 0 0 0 
571 1 7.12801 -0.763186 7.72173 0 0 0 
587 2 8.3921 -1.77719 9.17111 0 0 0 
578 2 7.78338 -0.939928 6.83459 0 0 0 
129 2 9.88583 -0.909805 6.29517 -1 0 0 
682 2 -6.81936 6.15475 4.58939 1 0 0 
228 2 -3.48096 8.3612 4.62418 0 0 0 
203 2 -4.51879 8.63376 8.29353 0 0 0 
349 2 0.409959 -0.0132184 7.905 0 0 0 
99 2 -6.60685 3.77684 12.0212 0 0 -1 
117 1 -7.98897 -0.197279 8.8257 0 0 0 
351 2 0.295861 -0.105071 10.3958 0 0 0 
204 2 -5.72468 8.40684 9.49694 0 0 0 
103 2 -6.01697 1.36032 11.7806 0 0 -1 
100 2 -7.86466 2.63836 11.5135 0 0 -1 
142 2 -3.25703 1.69961 5.77214 0 0 0 
152 2 -3.18213 -0.221631 7.52837 0 0 0 
149 1 -3.01693 0.185412 8.52941 0 0 0 
148 2 -1.34427 1.39509 7.83239 0 0 0 
202 2 -3.88317 6.87051 10.0632 0 0 0 
134 1 -4.06394 3.82825 5.69609 0 0 0 
140 2 -3.84896 4.68908 6.27414 0 0 0 
143 2 -2.0659 2.92533 6.12858 0 0 0 
141 2 -5.05875 3.44365 5.84012 0 0 0 
115 1 -7.9414 1.58365 6.99402 0 0 0 
131 2 -7.6507 0.901472 5.00966 0 0 0 
124 2 -6.32946 1.13065 8.41928 0 0 0 
120 1 -7.46042 0.541703 6.0587 0 0 0 
132 2 -6.43029 0.486562 6.14959 0 0 0 
192 1 -5.41222 5.42179 9.49428 0 0 0 
193 1 -4.3945 6.58772 9.16844 0 0 0 
194 1 -5.1729 7.88623 8.69448 0 0 0 
195 1 -6.17703 7.58464 7.45243 0 0 0 
196 1 -7.15457 6.54747 7.92793 0 0 0 
199 2 -4.8698 4.55119 9.7322 0 0 0 
200 2 -5.97351 5.64293 10.4237 0 0 0 
201 2 -3.64212 6.30501 8.42947 0 0 0 
205 2 -5.62704 7.33631 6.53079 0 0 0 
135 1 -3.12769 2.68491 6.27627 0 0 0 
136 1 -3.18463 2.56791 7.83381 0 0 0 
198 2 -5.98793 4.75999 7.51984 0 0 0 
191 1 -6.4599 5.2029 8.42389 0 0 0 
197 2 -7.18109 4.45957 8.7886 0 0 0 
146 1 -2.27186 1.52227 8.4715 0 0 0 
147 2 -1.81757 1.73775 9.41669 0 0 0 
207 2 -7.86884 6.38998 7.1326 0 0 0 
144 2 -4.18793 2.47761 8.18095 0 0 0 
145 2 -2.77613 3.53302 8.25748 0 0 0 
151 2 -4.05092 0.320865 8.93565 0 0 0 
429 2 -1.1366 5.60811 9.14981 0 0 0 
206 2 -6.68253 8.50374 7.24283 0 0 0 
208 2 -7.76067 7.00472 8.64531 0 0 0 
116 1 -7.42297 1.1465 8.41311 0 0 0 
121 2 -7.65498 2.59615 6.72772 0 0 0 
123 2 -7.68186 1.84834 9.20414 0 0 0 
427 2 0.168679 7.25552 10.5104 0 0 0 
421 1 -0.282971 5.25937 9.78206 0 0 0 
430 2 -0.747663 4.90633 10.7201 0 0 0 
431 2 -0.165339 3.27884 8.96219 0 0 0 
330 2 4.79843 0.0734531 12.0073 0 0 -1 
444 2 0.535274 4.18889 4.7135 0 0 0 
579 2 5.71344 -0.222942 6.28835 0 0 0 
125 2 9.92341 -0.141152 8.97105 -1 0 0 
426 2 0.538936 7.42007 8.01196 0 0 0 
122 2 9.85099 1.60293 6.95993 -1 0 0 
489 2 6.81421 8.31155 12.0652 0 -1 -1 
491 1 8.53132 6.92909 11.6576 0 -1 -1 
456 2 2.58881 0.000289264 5.2099 0 0 0 
304 2 3.71089 8.4728 4.57384 0 -1 0 
455 2 3.89774 1.08011 5.67324 0 0 0 
449 2 2.52576 3.03145 4.82987 0 0 0 
453 1 3.48881 0.464915 4.84454 0 0 0 
659 2 7.9274 3.2543 4.78883 0 0 0 
333 2 2.56076 1.07972 11.8119 0 0 -1 
433 2 0.67053 4.76684 6.98211 0 0 0 
324 1 4.75363 1.18544 11.9694 0 0 -1 
493 2 9.11791 7.62287 11.0484 0 -1 -1 
511 2 7.86982 8.37615 7.47691 0 -1 0 
302 2 1.91861 8.07142 4.59907 0 -1 0 
425 2 2.02735 7.83321 8.9629 0 0 0 
419 1 1.28012 7.03959 8.73192 0 0 0 
509 2 5.7159 8.09371 8.41499 0 -1 0 
502 2 6.03648 8.31391 5.90024 0 -1 0 
352 2 1.86093 -0.0814349 9.79052 0 0 0 
492 2 7.993 6.37216 10.9014 0 -1 -1 
422 1 0.497116 4.14521 9.12829 0 0 0 
327 2 4.78351 2.70245 10.5504 0 0 -1 
323 1 5.21687 1.70623 10.6534 0 0 -1 
423 1 1.30964 4.57926 7.83077 0 0 0 
432 2 1.21019 3.77258 9.89314 0 0 0 
434 2 1.99838 3.81597 7.43426 0 0 0 
436 2 2.95294 5.74723 8.86618 0 0 0 
435 2 2.51835 6.32496 7.19671 0 0 0 
428 2 1.49506 6.14128 10.7046 0 0 0 
420 1 0.644124 6.44431 10.0176 0 0 0 
424 1 2.11593 5.93073 8.17085 0 0 0 
328 2 6.30552 1.70763 10.4492 0 0 -1 
329 2 4.57234 1.05715 9.96886 0 0 -1 
653 2 4.9851 4.85198 8.28931 0 0 0 
657 2 6.40289 5.33926 4.64628 0 0 0 
656 2 4.62461 3.63202 6.24525 0 0 0 
648 1 4.99442 4.65583 6.14034 0 0 0 
649 1 5.96272 4.40374 5 0 0 0 
655 2 4.09621 5.21806 5.92824 0 0 0 
647 1 5.68006 5.03361 7.44443 0 0 0 
663 2 7.51262 4.54896 8.62952 0 0 0 
664 2 6.50872 3.21779 8.08713 0 0 0 
654 2 5.86564 6.07519 7.4921 0 0 0 
660 2 6.57178 2.43047 5.9112 0 0 0 
577 2 7.32828 0.362498 7.92489 0 0 0 
661 2 8.23786 4.9503 6.26019 0 0 0 
652 1 6.94492 4.15805 7.80753 0 0 0 
651 1 7.81126 4.03541 6.55747 0 0 0 
650 1 7.04139 3.39131 5.44256 0 0 0 
662 2 8.68171 3.30578 6.69482 0 0 0 
ITEM: TIMESTEP
800
ITEM: NUMBER OF ATOMS
684
ITEM: BOX BOUNDS pp pp pp
-8.97768 9.95715
-9.30453 8.72947
-10.6677 12.0748
ITEM: ATOMS id type x y z ix iy iz 
20 1 -8.18226 -3.62675 -8.10862 0 0 0 
21 1 -7.87376 -3.81009 -9.56783 0 0 0 
27 2 -7.33337 -3.91745 -7.42707 0 0 0 
28 2 -7.67668 -4.87364 -9.73993 0 0 0 
29 2 -8.71422 -3.62748 -10.2356 0 0 0 
22 1 -6.69611 -2.82991 -9.8734 0 0 0 
30 2 -5.81483 -3.19121 -9.30001 0 0 0 
31 2 -6.92476 -1.8223 -9.66191 0 0 0 
175 2 -6.37773 -6.6772 -9.67657 0 1 0 
176 2 -7.90163 -7.48131 -10.1853 0 1 0 
241 2 -4.28051 -5.18225 -4.63888 0 0 0 
240 2 -4.91071 -7.27994 -5.92923 0 0 0 
252 2 -4.12295 -5.4126 -8.45937 0 0 0 
242 2 -3.22058 -5.61188 -5.80106 0 0 0 
232 1 -3.56992 -5.96937 -4.84369 0 0 0 
231 1 -4.19173 -7.28331 -5.10638 0 0 0 
244 2 -1.89887 -5.07526 -3.862 0 0 0 
248 1 -2.16288 -5.82467 -9.18471 0 0 0 
255 2 -2.01687 -6.77011 -8.67265 0 0 0 
247 1 -3.64739 -5.54595 -9.44134 0 0 0 
246 2 -0.893401 -6.60889 -5.16135 0 0 0 
254 2 -1.74704 -5.08036 -8.48535 0 0 0 
234 1 -1.41176 -7.03862 -4.31818 0 0 0 
238 2 -2.93237 -8.23691 -6.59034 0 0 0 
229 1 -1.96745 -8.44988 -4.56056 0 0 0 
230 1 -3.15488 -8.44261 -5.52971 0 0 0 
233 1 -2.3802 -6.02336 -3.88032 0 0 0 
245 2 -0.611426 -7.21944 -3.61604 0 0 0 
85 2 -3.51742 -1.02744 -3.9686 0 0 0 
239 2 -4.79147 -7.62504 -4.23369 0 0 0 
78 1 -4.60421 -1.05803 -4.31492 0 0 0 
86 2 -4.41906 -0.969046 -5.35523 0 0 0 
26 2 -8.25952 -2.58444 -7.92212 0 0 0 
23 2 9.78507 -5.56319 -8.00644 -1 0 0 
171 1 -7.03917 -7.50029 -9.55253 0 1 0 
177 2 -7.2343 -7.67693 -8.57193 0 1 0 
180 2 -4.39116 -8.28543 -8.86255 0 1 0 
79 1 -5.35333 -2.28164 -3.90309 0 0 0 
88 2 -4.89567 -3.23741 -4.11788 0 0 0 
253 2 -3.85738 -4.51032 -9.88122 0 0 0 
249 1 -1.35248 -5.93988 -10.4922 0 0 0 
179 2 -6.09696 -8.88586 11.8151 0 1 -1 
236 2 -2.21057 -8.93522 -3.59798 0 0 0 
87 2 -5.46401 -2.33214 -2.80777 0 0 0 
19 1 9.63813 -4.52242 -7.67379 -1 0 0 
90 2 -6.79146 -2.70755 -5.57279 0 0 0 
403 2 0.0843047 -8.5017 -7.73203 0 1 0 
250 1 0.14693 -6.22327 -10.3259 0 0 0 
341 2 0.724714 -0.523729 -8.12799 0 0 0 
243 2 -2.63528 -6.20177 -2.82762 0 0 0 
80 1 -6.81241 -2.33485 -4.48338 0 0 0 
10 2 9.43706 -7.93258 -4.24448 -1 0 0 
257 2 -1.50594 -5.01037 11.6777 0 0 -1 
569 2 8.95749 0.248725 -8.1718 0 0 0 
570 2 9.51569 0.0879196 -9.79269 0 0 0 
172 1 -6.31923 -8.80752 -9.90277 0 1 0 
235 2 -1.28199 -9.15555 -5.01362 0 0 0 
173 1 -5.0897 -9.14184 -8.96837 0 1 0 
7 2 8.45877 -5.67632 -4.27027 -1 0 0 
89 2 -7.22241 -3.04829 -3.8525 0 0 0 
81 1 -7.5315 -0.993671 -4.41388 0 0 0 
258 2 0.14411 -7.09617 -9.68468 0 0 0 
259 2 0.667653 -5.38326 -9.82252 0 0 0 
24 2 9.51947 -4.50933 -6.5391 -1 0 0 
487 2 8.79617 -8.35883 -9.68955 0 0 0 
405 2 1.0213 -7.06447 -7.55696 0 1 0 
473 2 2.00372 -3.65679 -6.765 0 0 0 
471 2 1.37428 -3.99726 -4.30051 0 0 0 
464 2 3.42994 -2.63981 -5.24631 0 0 0 
472 2 0.838938 -5.24565 -5.17469 0 0 0 
25 2 8.71156 -4.17821 -8.17283 -1 0 0 
462 1 2.53487 -4.33861 -6.11228 0 0 0 
461 1 1.73507 -4.78707 -4.86658 0 0 0 
474 2 2.79086 -5.2512 -6.65336 0 0 0 
481 2 4.94019 -7.53821 -6.98106 0 0 0 
479 2 5.97855 -6.27692 -6.966 0 0 0 
480 2 4.70078 -6.33378 -8.15094 0 0 0 
470 2 2.92307 -6.39933 -4.657 0 0 0 
463 2 4.4608 -3.3935 -6.57749 0 0 0 
457 1 3.80439 -3.56126 -5.70748 0 0 0 
465 2 5.40816 -3.6286 -4.25171 0 0 0 
475 1 5.43604 -6.88262 -7.62095 0 0 0 
483 2 7.00743 -6.73749 -8.94895 0 0 0 
476 1 6.46069 -7.58459 -8.5653 0 0 0 
482 2 5.98054 -8.05041 -9.3419 0 0 0 
466 2 5.20153 -5.09374 -5.16605 0 0 0 